[Molden Format]

[FREQ]
        -372.1137461945
          62.5923396990
          92.9097761379
         107.3459229804
         173.6401826650
         185.9129810281
         212.0152599251
         223.3652344882
         271.9378840574
         285.7329152075
         344.8254760962
         453.3609646876
         460.1906056698
         567.8793655249
         625.9812257824
         689.7546900259
         749.8920363196
         871.7379480675
         913.3826945865
         980.2149353271
        1020.6867888528
        1093.9026142601
        1142.9488159798
        1154.3031036211
        1168.6381110543
        1175.1137220885
        1178.6507638292
        1241.2867253510
        1332.3835640244
        1418.1499093272
        1463.0622778868
        1472.1858597475
        1482.6316202440
        1514.3107109048
        1518.3895215140
        1519.7026681219
        1537.0516320306
        1539.8459404064
        1546.2794937313
        1724.2319453487
        1923.9573599603
        3062.0624695884
        3085.3109820360
        3113.7733677068
        3135.8333334040
        3180.6119817718
        3183.0133122384
        3216.9461377679
        3224.5558399234
        3244.1153227011
        3246.4927488640

[FR-COORD]
N         -1.6830768716        0.5906335429        1.2164106540
N          2.6882346317       -0.4388029632       -0.0010506047
O          1.0641686196       -1.6037256407       -1.6192141138
C         -1.8168579133       -1.0743522611       -0.5698556957
O         -3.3076794438       -2.3825003065       -1.7489098449
C          1.4128442104        3.7213798017       -1.6674292528
C          3.6712183633       -2.1063084687        1.9640810825
H          2.0764765970       -2.7378747673        3.1180331863
H          4.5639789182       -3.7102930232        1.0311355097
H          5.0495966686       -1.0755380484        3.0999277671
C         -4.1059347497        1.5219386662        2.1559494292
H         -5.5554624522        0.0416156878        2.0713433039
H         -3.8774202446        2.1388704740        4.1132962024
H         -4.7669916108        3.1357444518        1.0316192334
C          2.2894885049        1.9726274284        0.3484556787
H          0.4318676414        2.7105858230       -3.1678032634
H          0.1610487272        5.1429129293       -0.8475197695
H          3.0680383323        4.6963365841       -2.4562130820
H          3.2150663707        2.7649019812        2.0075831508

[FR-NORM-COORD]
vibration 1
          -0.1721488034       -0.0631598488        0.0397712195
          -0.0722532306        0.0174669897        0.0592404653
           0.1331598135        0.0195856235        0.0104428228
          -0.2748170536        0.0224785499        0.0755932401
          -0.0278270083       -0.0588103852       -0.0856435887
           0.0447658166        0.0064824503       -0.0012624176
           0.0517979702        0.0061839717       -0.0002215548
           0.0485319397       -0.0361700985       -0.0376410452
           0.0499333170        0.0434223070       -0.0641433291
           0.0276948905        0.0084704154        0.0232542460
          -0.1347531770       -0.0190989793        0.0486715800
          -0.2194834558        0.0585303769        0.0961321405
          -0.0869360856        0.0015514784        0.0375300661
          -0.0779588517        0.0053504472        0.0489334068
           0.4434820121        0.0794444749       -0.1359985348
          -0.0179790987       -0.0694023615        0.0924258353
          -0.0043441475       -0.1178259452        0.1417059940
          -0.1302855566        0.1774929536       -0.1552531509
           0.5813762204        0.0489898109       -0.2077757294
vibration 2
          -0.0009543326        0.0391951103       -0.0325155804
          -0.0064263754        0.0024946102       -0.0027328236
          -0.0083005956        0.0246135847       -0.0199146441
           0.0062929301        0.0087413334       -0.0060974508
           0.0002058400       -0.0218397931        0.0325716200
           0.0583656589        0.0251909209        0.0047654614
          -0.0415284140       -0.0178283282       -0.0026312145
          -0.0582858141       -0.0052725997       -0.0185759873
          -0.0519912689       -0.0234414593       -0.0031624919
          -0.0394886508       -0.0386950688        0.0139311389
          -0.0192785919       -0.0526973029        0.0144957332
           0.1671872559       -0.2639286902        0.5166296505
           0.1196639888        0.4198089960       -0.1515632573
          -0.3653840648       -0.4021143360       -0.2832196651
           0.0162671656        0.0045921394        0.0046793839
           0.0427243590        0.0468014974        0.0006082732
           0.0842398549        0.0480116010        0.0035592504
           0.0824053235       -0.0091042530        0.0124722884
           0.0103983096       -0.0143061008        0.0170734350
vibration 3
           0.0277701300       -0.1189860845        0.1350058020
           0.0200323976       -0.0204494584        0.0260494140
           0.0078874707       -0.0809464128        0.0778894165
           0.0089821583        0.0219704042        0.0004165811
          -0.0278453830        0.2220610598       -0.1727675746
          -0.1455576818       -0.0950283184       -0.0320247831
           0.1208374518        0.0442984666        0.0299758524
           0.1723057964        0.0338263152        0.0949274291
           0.1312762271        0.0460353994        0.0366376327
           0.1334269586        0.1034799056       -0.0388914696
           0.0202277755        0.0216274297       -0.0202315128
           0.0648017322       -0.0431868366        0.3537705334
           0.0578232743        0.4600885026       -0.1645358067
          -0.0765309747       -0.2567781605       -0.3661418060
          -0.0298199974       -0.0229524928       -0.0175711224
          -0.1454937326       -0.1566383260        0.0090255185
          -0.1756258644       -0.1224619359       -0.0293792082
          -0.2024396606       -0.0499226091       -0.0954202272
          -0.0053788002        0.0415432826       -0.0624193509
vibration 4
          -0.0310526700       -0.0016529142       -0.0037833732
           0.0000747715       -0.0102397982       -0.0063255577
           0.0036240257       -0.0043755798        0.0006583500
          -0.0324170720       -0.0431845419        0.0416353079
          -0.0045566227       -0.1006076806        0.0764827171
          -0.0558682755        0.0438613651        0.1452012531
           0.1475663740       -0.0587446819       -0.1221531020
           0.2184936754       -0.2323474778       -0.1197798988
           0.2262780126        0.0500317087       -0.2347495577
           0.1101478291       -0.0385724649       -0.0952793672
          -0.0278324475        0.1851451687       -0.1793256175
          -0.0738079928        0.2219045828       -0.0345768209
          -0.0610969951        0.4182144454       -0.2496414857
           0.0529884922        0.0661679107       -0.3992881756
          -0.0174171672       -0.0232585030        0.0707708229
          -0.0573563621        0.0867167474        0.1167725090
          -0.0691393747       -0.0048862614        0.2097849749
          -0.0775185193        0.0980706807        0.1665491105
           0.0091603820       -0.0700505822        0.0787495008
vibration 5
           0.0178907927       -0.1119651950       -0.0183194614
           0.0130603382        0.0110503420       -0.0334554505
           0.1051367903        0.0116779701       -0.0918233221
          -0.0728700776       -0.0626083490       -0.0277212928
           0.0104822912       -0.1031513803       -0.0665903086
          -0.0869654748        0.0282827658        0.0489298421
          -0.1532217627        0.0354894444        0.0790436380
          -0.2552340650        0.1558211646        0.0045040059
          -0.1765803350       -0.0379446487        0.1856831162
          -0.1760612588        0.0131635918        0.1272166139
           0.1798404837        0.1572837399        0.0930770971
           0.0397094875        0.2786366396        0.3515741055
           0.4002323853        0.3022503895        0.0215591719
           0.2227490638        0.1208024807        0.0148786516
          -0.0270845508        0.0033446701        0.0001977128
          -0.0125900322        0.0208731854        0.0044319322
          -0.1810870865       -0.0741298158        0.0858923911
          -0.1423996719        0.1607221698        0.0992367769
          -0.0750619721       -0.0127322973        0.0342484720
vibration 6
          -0.0382150617        0.0584494200       -0.0809375197
          -0.0121732017       -0.0041697540        0.0397184438
           0.0297959970       -0.0235528222        0.0197351130
          -0.0527813436        0.0219440777       -0.0332027030
          -0.0183431362       -0.0076737571       -0.0370920276
           0.0234280011       -0.0404724523       -0.0323466504
           0.0756593267       -0.0037104892       -0.0108843985
           0.0640361220       -0.4382808770       -0.2675163943
           0.5154362037        0.2592860532       -0.0467917939
          -0.2719061888        0.1592940996        0.2635946084
           0.0177832510        0.0208783490        0.0913550584
           0.0236757322        0.0111789031        0.1577338030
           0.1436342899       -0.0215038605        0.0904370286
          -0.0668464425        0.0417004635        0.1729377946
          -0.0571808925       -0.0092125107        0.0339199088
           0.1598298895       -0.0859261607       -0.0915011499
          -0.0774575134       -0.0694483838       -0.1373557215
           0.0526741439       -0.0033112925        0.0752141253
          -0.1069857217        0.0143100400        0.0498828256
vibration 7
          -0.0300325413        0.0483756886       -0.0733204342
          -0.0034612740       -0.0105425606        0.0111775950
          -0.0002610413       -0.0342196318        0.0283592839
          -0.0336026020        0.0092132646       -0.0296466816
          -0.0163559136       -0.0137205954       -0.0246589812
           0.0181326651        0.0004122905        0.0151466962
           0.0711607058        0.0162385344       -0.0019305805
           0.1682563084        0.2836058463        0.2825509772
          -0.2660326564       -0.1553574836       -0.0271021596
           0.3721281343       -0.0704963920       -0.2887712365
          -0.0000136114        0.0055528966        0.0406925328
           0.0153545305       -0.0118392328        0.0798928567
           0.0760800519       -0.0240791925        0.0414964789
          -0.0695437821        0.0164474366        0.0978205245
          -0.0211031522       -0.0129238548        0.0203951586
           0.3444986342       -0.0505454596       -0.1667072096
          -0.2815975167       -0.2111038545       -0.0767479443
          -0.0033272667        0.2607009340        0.2946099918
          -0.0383852614       -0.0223476818        0.0359408638
vibration 8
           0.0351978529       -0.0399185724        0.0825950301
           0.0018961970        0.0093259233       -0.0185267487
          -0.0144403564        0.0274269526       -0.0214788250
           0.0323540542        0.0000688485        0.0371474874
          -0.0028025939        0.0281886786        0.0498088933
           0.0162070451       -0.0017339689       -0.0317816163
          -0.0608909847       -0.0196175763       -0.0128238816
          -0.1224560088       -0.1292061505       -0.1603634079
           0.0851272249        0.0546891252       -0.0021047906
          -0.1987773074        0.0017491869        0.1351533338
          -0.0124522794       -0.0204146510       -0.0486694831
          -0.0091854067       -0.0208900262       -0.0956963626
          -0.1101253194        0.0186246461       -0.0499931442
           0.0411642961       -0.0435703995       -0.1153847280
           0.0292312464        0.0146128005       -0.0234406611
           0.4539075466       -0.1048042140       -0.2521953135
          -0.4042684995       -0.3083625681       -0.1420627085
          -0.0509123702        0.3836936853        0.3092015970
           0.0208118058        0.0129723342       -0.0189559729
vibration 9
          -0.0594562163       -0.1679999912        0.1398983388
          -0.0399618169        0.0541366176        0.0218763330
           0.0056690949        0.0859775644       -0.0385543752
          -0.0651226233       -0.0573405947        0.0358712954
          -0.0114503341       -0.0404535807       -0.0420336484
           0.2084198812       -0.0046972731       -0.1110399469
           0.0454971036        0.0306043801       -0.0532722167
           0.1337933372        0.0531002013        0.0824442932
          -0.0663665954        0.0174153933       -0.1386088642
           0.1709469047       -0.0091844871       -0.1690499944
          -0.0268562702        0.0398277141        0.0299878643
          -0.1292343543        0.1376982410        0.0654983448
          -0.0350719170        0.1175455292        0.0055287346
           0.1214357895        0.0310220542       -0.0682569325
          -0.1157925077        0.0369732089        0.0685288268
           0.2686392729       -0.0205231028       -0.1407394479
           0.2859801288        0.2114805974       -0.3655492537
           0.4034918780       -0.2572463205       -0.0152320775
          -0.2299605659        0.0380685541        0.1315037087
vibration 10
           0.0327043428       -0.0756841174       -0.0082040743
          -0.0216040884       -0.0405574462       -0.0807711047
          -0.0489254756       -0.1527637507        0.0100463312
          -0.0356865870       -0.0635416500       -0.0187934529
          -0.1392755598        0.0250865852        0.0095610122
           0.1259647147        0.1878860313        0.0842069657
           0.0421670230        0.1694617956        0.0710527934
           0.0506421295        0.0955473591        0.0414187955
           0.2733012246        0.1925192698        0.2519206493
          -0.1281248166        0.4025309558        0.0647383105
           0.0331770214       -0.0525207450       -0.0383300083
           0.0215244726       -0.0396585377       -0.0674118032
           0.0105402132       -0.0629580977       -0.0325938941
           0.0612166428       -0.0430727396       -0.0416811163
           0.0040424314       -0.0343805838       -0.0695030247
           0.0919836831        0.4038042120       -0.0433832471
           0.1939072398        0.1703122039        0.2223864599
           0.1980242010        0.1855105600        0.2338141088
           0.0394738263       -0.1266854957       -0.0450702069
vibration 11
           0.0439360014        0.0362872485       -0.0247839151
           0.1377227559       -0.0109204564       -0.0258436798
           0.3615922087        0.0492056500       -0.2603837307
          -0.1620151839        0.0631232466        0.0200550608
          -0.2868306027        0.1171817370        0.1885790141
          -0.0346964023       -0.1429557087        0.0258949578
           0.0551308276        0.0418021642        0.0822960737
           0.0242210351        0.1855280975        0.1209716856
          -0.0152726328       -0.0562889473        0.1878837574
           0.0975127381        0.0543685032        0.0205009681
          -0.0644534117       -0.0893026331       -0.0882454177
           0.0406039051       -0.1822431708       -0.2256493490
          -0.1983582174       -0.1405799908       -0.0590967773
          -0.0814399002       -0.1019548355       -0.0905624243
          -0.0639757663       -0.0559873391        0.1034021671
          -0.0435713161       -0.2277627535        0.0924277236
          -0.0046661573       -0.0628466015       -0.0703715227
          -0.0229771133       -0.2337180826       -0.0625665078
          -0.2916416256       -0.0448828391        0.2220198737
vibration 12
          -0.1233399905        0.1042236320        0.1443441772
           0.1292188027       -0.1170568771       -0.2252464127
           0.0239417178       -0.0805928788       -0.1210035396
          -0.0074576794        0.1099276542        0.1044382697
           0.2437925259       -0.0069623302       -0.0394511788
           0.0227051266       -0.0362642520        0.0472348954
          -0.0004748283        0.0759967297        0.0151064208
          -0.0921997409        0.2167400497       -0.0339050861
           0.1166673439       -0.0354477488        0.3210782236
          -0.1234323380        0.2515337309        0.0043669390
          -0.2435727143        0.1076015538        0.1221546398
          -0.1840549445        0.0543766975        0.0992947309
          -0.2810481339        0.1122827105        0.1223255161
          -0.2486906639        0.0792175436        0.0929929143
          -0.0689363962       -0.1651656167       -0.0522893626
           0.0363621634        0.1126741930       -0.0639925039
           0.0566969548       -0.0496815860        0.1190558985
           0.0839478246       -0.0388572049        0.1712305144
          -0.1499700810       -0.2315361940        0.0204798272
vibration 13
           0.0118979341       -0.0187938575       -0.0277083725
          -0.0641343204       -0.0665895891       -0.0115212710
          -0.2069859430        0.2180477373       -0.1194550765
           0.0319184255        0.0055494480       -0.0682954630
          -0.0038803167       -0.0459319087       -0.0033302658
           0.0150977399       -0.1917636460        0.0833630372
           0.0738531454        0.1387958315        0.0931324536
           0.1813730098        0.1249680947        0.2349041770
           0.2757414335        0.1231189154        0.3136896481
          -0.0258657480        0.4594250443       -0.0784980925
           0.0492133270       -0.0033558148       -0.0212236921
           0.0204038320        0.0224305968        0.0020202151
           0.0659281507        0.0133507010       -0.0273619973
           0.0583715760        0.0008482352       -0.0248413692
           0.1100027366       -0.0754243848        0.0686090129
           0.0430903720       -0.3093434122        0.1502545482
          -0.0443332330       -0.2221806773        0.0390150970
          -0.0476747600       -0.1451388556        0.0064798880
           0.2104280082       -0.1101095238        0.0255726876
vibration 14
          -0.0325412897       -0.0049888738       -0.0582436472
           0.1915739896        0.1321965318       -0.1708724006
          -0.0490332981       -0.0665043202        0.1502544631
          -0.0195989647       -0.0895307089        0.0317174526
          -0.0696565683        0.0033560843       -0.0371510470
           0.0486787548       -0.1376011386        0.1008812178
          -0.0894283274        0.1285445676       -0.1562817199
          -0.3050050364        0.2764858752       -0.3705672285
          -0.1305678436        0.0369354170       -0.0326603915
          -0.1496158507       -0.0038835474        0.0380706047
          -0.0126672089       -0.0012647133       -0.0065242250
          -0.0103672281       -0.0029644699        0.0090689572
           0.0182750608       -0.0151794602       -0.0059768593
          -0.0308797871        0.0031117659        0.0115865140
           0.0693617705        0.0715963212        0.1613401101
           0.1335971146       -0.4259902073        0.2399707105
          -0.0214882323       -0.0511293632       -0.1700086482
           0.0429446774       -0.2371837128       -0.0371115729
           0.1706526623       -0.0090262793        0.1446370363
vibration 15
          -0.1167330656       -0.0686609170       -0.0490660908
           0.3691007748       -0.0185874679       -0.0449733552
          -0.1110659602        0.1939594573        0.0650118228
           0.0335876960       -0.1134100767       -0.0444209235
          -0.1361920228       -0.0138077269       -0.0168189114
          -0.0325375007        0.0994854021       -0.0927715078
           0.1373943155       -0.1779866835        0.1767060324
          -0.0794121667       -0.0055551748       -0.0316254954
           0.1203099951       -0.2625769311        0.3045535168
           0.0680732110       -0.2652185453        0.3476547524
          -0.0822654598        0.0362674018        0.0383585497
          -0.1347120044        0.0851686508        0.0985374752
           0.0229801882        0.0322249497        0.0275776000
          -0.0640666383        0.0575666644        0.0584337307
          -0.0063849071       -0.0093050874       -0.0800127029
          -0.0709592296        0.2731062439       -0.1815282572
           0.0131341478        0.0475821524        0.0736725170
          -0.0176234484        0.1673917653        0.0155661301
          -0.0329361224        0.1874511571       -0.1455942595
vibration 16
           0.0385787621        0.2248287962       -0.1690551596
          -0.0935001435       -0.0341230927        0.0241835145
           0.0181252839        0.1142612248       -0.1101074243
           0.0243694372       -0.5836658110        0.6223879993
           0.0125670238        0.1715074927       -0.1966594907
           0.0037553061        0.0109291736       -0.0125628572
          -0.0130962373        0.0024649394        0.0109479640
           0.0791916882       -0.0603053076        0.1049672027
           0.0172155036        0.0300375577       -0.0076696845
          -0.0075512305        0.0676157287       -0.0559048291
           0.0252969260        0.0011245053       -0.0125180759
           0.1059547823       -0.0655982905       -0.0636308855
          -0.0188057809       -0.0561807927        0.0132603816
          -0.0734862535       -0.0088353489        0.0301142255
          -0.0205000299       -0.0301593779       -0.0376973799
           0.0010236045        0.0568654477       -0.0423142661
           0.0090622824       -0.0199920812        0.0508252709
           0.0159491600        0.0444674614        0.0566909851
          -0.0886237084       -0.0373224756        0.0016403410
vibration 17
          -0.2072078863       -0.1095449968       -0.0833909264
          -0.0770564903        0.0279559202        0.0682419821
           0.0738935659       -0.0921518602       -0.1205627204
           0.4193981034       -0.1586679967       -0.1226262274
          -0.0536059606        0.1325944725        0.1281815786
           0.0213418870       -0.0189208851        0.0205532306
          -0.0301453548        0.0370140590       -0.0305618011
           0.0605858484       -0.0392591333        0.0551838337
          -0.0128070556        0.0919135830       -0.1087537890
           0.0026187998        0.0552592520       -0.0894595991
          -0.1691414096        0.0929247891        0.0983061612
          -0.3914238869        0.2973259103        0.3134104927
           0.2247028063        0.0985710457        0.0534363889
          -0.0640928966        0.1990700202        0.1856518194
           0.0697043889        0.0412943511        0.0056959213
          -0.0009370918       -0.0945031364        0.0873772463
          -0.0290248017       -0.0742224850        0.0340571336
          -0.0495844628        0.0345324328       -0.0616726468
           0.1827521255       -0.0012378620       -0.0387381134
vibration 18
          -0.0407639227       -0.0291766164       -0.0277348488
          -0.0010145899       -0.0201980901        0.0412649498
           0.0847991401        0.1202319939        0.1266399893
           0.0113634547        0.0092335839       -0.0077802352
          -0.0055832271        0.0206676005        0.0281829814
           0.0077555132       -0.1377258957        0.0244682514
          -0.0548826129        0.0863937481       -0.0988787783
          -0.0645576484        0.0701438637       -0.1179952392
          -0.0857150718        0.0902539901       -0.1345966483
          -0.0480612082        0.0488376036       -0.0784353528
           0.0192288680       -0.0166562092       -0.0154414871
          -0.0225774551        0.0206429077        0.0190646302
           0.0734109298       -0.0120322457       -0.0231309911
           0.0355849813        0.0015455263       -0.0005538592
          -0.0587310439       -0.1130769822       -0.1217742312
          -0.0881478885        0.4061869526       -0.2685690953
           0.2358006939       -0.1661027339        0.4299065667
           0.1576782500       -0.0617353323        0.4212026410
           0.0260329143        0.0980813909       -0.2796021363
vibration 19
          -0.0005805075        0.0037035286       -0.0009347821
          -0.0181493541       -0.0006092306       -0.0182908238
           0.0215064528       -0.0012771921       -0.0158375660
          -0.0032146524        0.0012842584        0.0041487695
           0.0047915300        0.0011954238       -0.0000248232
          -0.0482525410        0.0145059942        0.0205241787
           0.0152595863       -0.0237572194        0.0202104931
          -0.0192389335        0.0283333404        0.0020097154
           0.0080075641       -0.0521020472        0.0644609929
          -0.0158436761       -0.0099303043        0.0462880066
           0.0020375493        0.0009492039       -0.0007394168
           0.0210408699       -0.0169068450       -0.0136501179
          -0.0096089614       -0.0049430938        0.0019775370
          -0.0072691370       -0.0054793453       -0.0036443966
          -0.0619708335        0.0028514357        0.0396007342
           0.1133246449        0.0011969872       -0.0775299537
          -0.0136375981        0.2023495676       -0.2568143016
           0.1675300931       -0.2020817403        0.1925407199
           0.7432994420        0.0674756852       -0.4338977659
vibration 20
           0.2387495459        0.0738966373        0.0839114937
           0.0327887261        0.0805994714        0.0897193990
          -0.0328037523       -0.0544628340       -0.0789276979
           0.0360830966       -0.0764910452       -0.0904087155
          -0.1059469618       -0.1111838157       -0.1024219955
           0.0231236631       -0.1008663137        0.0299872089
          -0.0070962969        0.0364808263        0.0152933859
           0.0297957672       -0.0974563542       -0.0079152409
          -0.0879390507        0.1296081079       -0.2239253212
           0.0866924355       -0.1617952555        0.0860599068
          -0.1532322195        0.1191005546        0.1073156976
           0.0856383914       -0.0925548528       -0.0934471885
          -0.4333303476        0.0866152749        0.1502040405
          -0.2413145818        0.0081179224        0.0098647276
          -0.0016901392        0.0502100195       -0.0391097538
          -0.0609334614        0.1326412354       -0.0603518991
           0.1398540685       -0.1658790687        0.3236948624
           0.0490904886        0.0049709990        0.2099102889
           0.0858365798        0.2994822196       -0.2032150640
vibration 21
           0.0912028565       -0.0065725127        0.0088284813
          -0.0183305473       -0.1156021611       -0.0066938501
           0.0926702292        0.0965331268        0.1178505488
           0.0361672015       -0.0400699182       -0.0524057957
          -0.0537629017       -0.0329500303       -0.0275567362
           0.0314375824        0.1144482372       -0.0730122042
          -0.0607095963        0.0074478230       -0.0898821213
           0.0417107216        0.0661394201        0.0886306660
           0.1232144770       -0.0295714866        0.1499703882
          -0.1376188886        0.3150084138       -0.2830302771
          -0.0796480832        0.0661219358        0.0514104815
           0.0829576883       -0.0812221955       -0.0606518291
          -0.2031978801        0.0171334459        0.0789683275
          -0.1558658678        0.0025846762        0.0151108544
          -0.0244883332       -0.0938488497        0.0727686828
          -0.0758537317       -0.1276549735        0.1482467316
          -0.1857460422       -0.0430362252       -0.1228158121
          -0.2178760857        0.2382812014       -0.4147343106
           0.2561093507       -0.3133846870        0.0225792390
vibration 22
          -0.0614258000       -0.0047410271        0.0074628882
           0.0182783707        0.0287460906       -0.0087533578
          -0.0146820599       -0.0251858318       -0.0357514054
          -0.0273416189        0.0140686578        0.0222593766
           0.0203684851        0.0106882418        0.0064319562
           0.1297688595       -0.0244718100       -0.0526207787
           0.0054702860        0.0116716697        0.0243691029
           0.0204123753       -0.0619629756        0.0050622119
          -0.0424852317        0.0464721810       -0.0823978899
           0.0505515448       -0.0895349428        0.0638570365
           0.0466474583       -0.0106325130       -0.0200126279
           0.0833833240       -0.0480529905       -0.0343918445
           0.0226648272       -0.0366536027       -0.0097851179
          -0.0057214091       -0.0215786570       -0.0065591484
          -0.1112924583        0.0103193546        0.0655005950
          -0.2377769138       -0.0008588043        0.1741944326
          -0.0071524538       -0.3974083736        0.4129676351
          -0.2500436882        0.3995314559       -0.2789153605
           0.3604250015        0.0952239266       -0.2310489366
vibration 23
          -0.0238228357        0.0191644445        0.0057579455
           0.0380423291       -0.0136735590        0.0805371249
          -0.0240856038       -0.0500767460       -0.0450244888
          -0.0067639178        0.0039393418        0.0089507964
           0.0010328062       -0.0046170254       -0.0050005243
          -0.0425264517       -0.0188037581       -0.0946109058
          -0.0187386913       -0.0436910734       -0.1076064282