[Molden Format]

[FREQ]
        -341.5544446935
          96.4030579732
         106.3067054819
         130.1749322134
         181.6545761056
         197.9096081879
         221.9651336677
         241.6718821374
         278.4611051813
         292.2738122089
         409.3195020743
         469.2108633560
         497.7189164876
         578.7784010965
         660.9807782114
         743.9146691053
         776.9489805127
         875.3372634071
         902.6966300834
        1005.1460402837
        1031.8408332760
        1088.0820798829
        1139.4962319978
        1141.9989636494
        1155.4281559917
        1173.5303560595
        1175.6360656150
        1250.2338770641
        1363.2362987769
        1410.9689389434
        1449.1534593725
        1452.4370804868
        1465.9970518976
        1489.1571883199
        1497.8258892575
        1500.1279854708
        1517.6121314573
        1521.3037370615
        1526.2106022364
        1739.7632129134
        1915.0167585815
        3036.6297916420
        3078.9964873217
        3091.2927369784
        3103.2426393448
        3144.3143897408
        3169.6222480320
        3194.1860135498
        3219.0009320731
        3222.5254502646
        3235.9671225002

[FR-COORD]
N         -1.8396914627        0.3788192479        1.1047242359
N          2.6751216875       -0.2307467172        0.2103484408
O          1.2341774105       -1.3853616427       -1.5518337792
C         -1.6057465504       -1.1546113239       -0.7806266740
O         -2.9065256284       -2.4483460417       -2.1488343948
C          1.2692748313        3.9324174942       -1.3255502511
C          3.6358880028       -1.9435145578        2.1368183602
H          2.0141481227       -2.7230979280        3.1558134157
H          4.6767943812       -3.4458184025        1.1880530658
H          4.8789966426       -0.9087631718        3.4141996416
C         -4.4238736413        0.9374004551        1.8282476372
H         -5.5934159110       -0.7770064067        1.8409995356
H         -4.4443691698        1.7723885068        3.7181246161
H         -5.3093324290        2.2814135156        0.5135343268
C          2.1801513096        2.1328519228        0.6285645351
H          0.5064573804        2.9453702789       -2.9619913424
H         -0.1828412869        5.1471390822       -0.5060179348
H          2.8666315818        5.1242566137       -1.9028881378
H          2.9505833007        2.8797329274        2.3826978838

[FR-NORM-COORD]
vibration 1
          -0.1523124773       -0.0686422868        0.0254436668
          -0.0693431355        0.0257209368        0.0615100601
           0.0470046654        0.0331486787        0.0435599506
          -0.1920728078       -0.0040457208        0.0381150404
          -0.0085637915       -0.0385283471       -0.0762787381
           0.0480939814        0.0095840303        0.0063700220
           0.0390685792        0.0092206159        0.0022204626
           0.0387855332       -0.0311136243       -0.0369345548
           0.0401341866        0.0494535451       -0.0595282095
           0.0143611522        0.0016725321        0.0292601335
          -0.1377041053       -0.0585732733        0.0174369179
          -0.2027725702       -0.0157367637        0.0494486985
          -0.1170995931       -0.0245540314        0.0048383827
          -0.1085344660       -0.0434626359        0.0105139310
           0.4365828643        0.0995556441       -0.1137489351
          -0.0200036627       -0.0525234958        0.0769831290
           0.0019028701       -0.1460034597        0.1612856252
          -0.1284399076        0.1803906210       -0.1255160647
           0.6417927748        0.0999187596       -0.2085897052
vibration 2
           0.0233948206       -0.1454474335        0.1397628171
           0.0180639755       -0.0227826773        0.0313930753
           0.0141195898       -0.1030209315        0.0881840358
          -0.0014951762        0.0051065084        0.0122955052
          -0.0259141132        0.2232145204       -0.1677506959
          -0.1714844671       -0.1187935474       -0.0555272968
           0.1505464873        0.0618998962        0.0391739692
           0.2129416904       -0.0233321398        0.0718594700
           0.2334742821        0.1137331677        0.0471620942
           0.1043451755        0.1582783434        0.0059748471
           0.0252241929        0.0838618960       -0.0301308879
          -0.1828884758        0.2240245968       -0.3059865544
          -0.0412291951       -0.1014579954        0.0508052440
           0.2989755305        0.3220546750        0.0262164944
          -0.0353463098       -0.0243774417       -0.0279780439
          -0.1405582273       -0.1939333683       -0.0255825034
          -0.2264107892       -0.1803522782       -0.0594978932
          -0.2513834090       -0.0384868586       -0.1107358821
          -0.0084919151        0.0577098951       -0.0753257077
vibration 3
           0.0326799613       -0.0228321619        0.0358103635
           0.0042766002       -0.0003661847        0.0046808513
           0.0049727436       -0.0042547103       -0.0005568421
           0.0227365334        0.0374836679       -0.0195027135
          -0.0139390143        0.1249902118       -0.0697249531
           0.0268740085       -0.0325615889       -0.0839474902
          -0.0905483197        0.0245506273        0.0748469754
          -0.1425886470        0.0958906851        0.0461673858
          -0.0969958421       -0.0239350532        0.1448279025
          -0.1055822007        0.0294119866        0.0854241576
           0.0234541977       -0.1301508411        0.0899871263
           0.2052912543       -0.2515112232        0.5386209034
           0.0714913714        0.2560201078       -0.0807221868
          -0.2189678946       -0.5077087078       -0.1315753077
           0.0033037437        0.0074827620       -0.0375709263
           0.0178711925       -0.0612019782       -0.0624169162
           0.0424411145        0.0077477191       -0.1167032588
           0.0430238336       -0.0677595957       -0.1124124088
          -0.0183334868        0.0388733257       -0.0419232730
vibration 4
          -0.0168446313        0.0139206293        0.0003459117
           0.0002473114       -0.0124611662        0.0085685217
          -0.0102933793       -0.0195283257        0.0226393619
          -0.0080726167       -0.0050422357        0.0168208665
          -0.0137571115        0.0005776665        0.0174161987
          -0.0317458230        0.0014737830        0.0630820605
           0.1191083941       -0.0198622424       -0.0594217999
           0.1844992373       -0.1114746675       -0.0256590978
           0.1482946451        0.0421143417       -0.1258451555
           0.1208402649       -0.0020240564       -0.0759549998
          -0.0355709861        0.0578782674       -0.0918016071
           0.0601542111       -0.0045311168        0.3785473011
          -0.0406097393        0.5302022835       -0.3011476643
          -0.1451440487       -0.3358649156       -0.4198512718
          -0.0116544080       -0.0196921869        0.0352047494
          -0.0395666581        0.0199138222        0.0555814578
          -0.0303833348       -0.0129126618        0.0860594124
          -0.0380158705        0.0126533491        0.0672048381
           0.0104517849       -0.0332838043        0.0315179214
vibration 5
          -0.0226819603        0.0524757141       -0.0403862246
          -0.0165648441       -0.0050837080        0.0292298199
           0.0008484822       -0.0064951407        0.0154965068
          -0.0194616941        0.0234498858       -0.0134889871
          -0.0114054349        0.0052789345       -0.0030153124
           0.0404703021       -0.0251225223       -0.0358090025
           0.0520765737       -0.0082054861       -0.0141474964
           0.0671836043       -0.4514024495       -0.3335217609
           0.5196852208        0.3029088944        0.0026146203
          -0.3685654335        0.1237859460        0.2885990395
          -0.0145337460       -0.0202521435        0.0432592962
           0.0214675711       -0.0448336498        0.0162264032
           0.0193097484       -0.0835349843        0.0717956791
          -0.0748518481        0.0078735366        0.1134239269
          -0.0250938259       -0.0046108803        0.0145294903
           0.0639068147       -0.0432651810       -0.0354520169
           0.0429656586        0.0174380940       -0.0960466569
           0.0772050784       -0.0669896741       -0.0221065893
          -0.0538250944        0.0124972854        0.0187460908
vibration 6
          -0.0400265696        0.1056561220       -0.0298609695
          -0.0093504302       -0.0107080924        0.0348192821
          -0.0431115543       -0.0264328743        0.0619830277
           0.0100330384        0.0615373249        0.0020430365
          -0.0265779571        0.0697635161        0.0212382604
           0.0892305887       -0.0257551609       -0.0490877858
           0.1365844805        0.0055959562       -0.0276929973
           0.2456514099        0.1571450104        0.2653476547
          -0.1292794070       -0.1117945817       -0.1331767328
           0.4304278550       -0.0336675541       -0.2821984610
          -0.1021142781       -0.1392846414       -0.0281741376
           0.0317824867       -0.2308518087       -0.2469987355
          -0.2077835972       -0.3370567860        0.0575983102
          -0.1652360007       -0.0664384754        0.0901092471
          -0.0302818519       -0.0108536126        0.0235004326
           0.0529975270       -0.0368907739       -0.0250011900
           0.1593504811        0.1037440382       -0.1209604222
           0.1831750366       -0.1606053863       -0.0714945769
          -0.0407863158        0.0044746870        0.0226386917
vibration 7
           0.0575792033       -0.0599484118        0.1575607020
           0.0155163437        0.0149573757       -0.0336076583
          -0.0330660480        0.0521677770       -0.0339194473
           0.0802910414        0.0034356988        0.0874529850
          -0.0177490766        0.0628526550        0.1182153562
           0.0167867826        0.0148312004       -0.0235317334
          -0.0691823106       -0.0335414094       -0.0350600726
          -0.1273674892       -0.1641836616       -0.2313871031
           0.1123626529        0.0723115110       -0.0045884955
          -0.2610388304       -0.0271147600        0.1465810427
          -0.0499969012       -0.0791136413       -0.1708158117
          -0.0343955951       -0.0900066027       -0.3676012955
          -0.3185783547       -0.1004618231       -0.1658044304
           0.1250576977       -0.0761838652       -0.2868917933
           0.0354940439        0.0194383093       -0.0288043100
          -0.2532917129        0.0275220939        0.0964075276
           0.2372245929        0.2099341132        0.0787500305
           0.0829794061       -0.1802285634       -0.2476569156
           0.0684413399        0.0204899789       -0.0446953429
vibration 8
           0.0136085707        0.0000964208        0.0386908632
           0.0031091364        0.0046536258       -0.0041132090
          -0.0076745574        0.0186202731       -0.0080402554
           0.0136234158        0.0138168985        0.0240469022
          -0.0139591681        0.0212814583        0.0434520350
           0.0243563796       -0.0128132255       -0.0300224169
          -0.0119441028       -0.0208465479       -0.0202092858
          -0.0201390658       -0.0319426008       -0.0421807673
          -0.0079696839       -0.0091624912       -0.0348691885
          -0.0193748275       -0.0401824624        0.0028299694
          -0.0150542472       -0.0240829102       -0.0317906238
           0.0032190996       -0.0366930401       -0.0738976370
          -0.0807441965       -0.0267946919       -0.0315751884
           0.0095240442       -0.0338042276       -0.0593408023
           0.0077159982        0.0064975662       -0.0021648104
           0.5291015765       -0.0618777068       -0.2396494361
          -0.3905327895       -0.3772739697       -0.2252992452
          -0.1131143973        0.3583797311        0.3670244791
          -0.0215357720        0.0057346051        0.0105926076
vibration 9
           0.0650622222        0.1960051712       -0.1249197946
           0.0541515961       -0.0588519018       -0.0363261215
           0.0060575650       -0.1099610859        0.0276870503
           0.0599874799        0.0736676312       -0.0266503945
          -0.0289067193        0.0574761031        0.0667195501
          -0.1954007426       -0.0015923761        0.1044881527
          -0.0338539477       -0.0138964358        0.0620510027
          -0.1067661126        0.0075268025       -0.0371597253
           0.0462264717       -0.0315640215        0.1788172743
          -0.1430171449        0.0314445720        0.1314490535
           0.0277697502       -0.0695357269       -0.0513994854
           0.1928421622       -0.1818814112       -0.1530101635
          -0.0276752250       -0.1881864588        0.0009099116
          -0.1170261032       -0.0721170780        0.0425818681
           0.1016863755       -0.0416829726       -0.0712797247
          -0.2825217357        0.0509491027        0.1137925493
          -0.2386804682       -0.2226444035        0.3553874562
          -0.3764707098        0.2049966472        0.0338346518
           0.2333467408       -0.0396677855       -0.1294080698
vibration 10
           0.0264319282       -0.0856800212        0.0039897164
          -0.0181377384       -0.0343724134       -0.0831188313
          -0.0417984144       -0.1449951288       -0.0080273128
          -0.0392407916       -0.0698879106       -0.0198454943
          -0.1380823641        0.0090280599       -0.0027677255
           0.1417861682        0.1894684184        0.0914961454
           0.0400288973        0.1720675999        0.0743090750
           0.0714224526        0.1455277886        0.1033046691
           0.2017812763        0.1688361869        0.2573898946
          -0.0811025606        0.3867570896        0.0173809784
           0.0274276994       -0.0417897113       -0.0334194305
           0.0018834745       -0.0247158436       -0.0674239433
           0.0082559966       -0.0533000326       -0.0289632362
           0.0704943591       -0.0234064913       -0.0433718496
          -0.0087229553       -0.0311779460       -0.0600499524
           0.1884817376        0.4002038248       -0.0624228243
           0.1413160750        0.1423411025        0.1655297455
           0.2129285108        0.2074233881        0.3282217682
           0.0038131538       -0.1275110438       -0.0238659980
vibration 11
          -0.0055739794        0.0219733764        0.0554831590
          -0.1021331128        0.0098427192        0.0089296825
          -0.2251842764       -0.1839475270        0.2455895996
           0.1585761435       -0.0158332418        0.0521602692
           0.2736460334       -0.0080142304       -0.1032240418
           0.0105942146        0.2180834419       -0.0541427838
          -0.0764203665       -0.1067103520       -0.1283970830
          -0.0766204312       -0.2124690053       -0.2111885392
          -0.1001123105       -0.0149739876       -0.3040364675
          -0.0640361995       -0.2494747795       -0.0261568885
           0.0042333439        0.0216594262        0.0472964309
           0.0014460493        0.0222854054        0.0770142574
           0.0118653213        0.0322937310        0.0447082139
          -0.0236333353        0.0123447320        0.0541220044
          -0.0294927342        0.0628456766       -0.1328568825
           0.0030750346        0.3761632343       -0.1527562677
           0.0082377749        0.1474131602        0.0530035447
           0.0257592975        0.2661082745        0.0921566605
           0.1378165866        0.0810532655       -0.2101246419
vibration 12
          -0.1346037027        0.0680024918        0.1178414678
           0.1435036924       -0.1006948894       -0.2192989460
          -0.0648843768        0.0121445181       -0.1126983044
           0.0073302646        0.0880262888        0.0847180882
           0.2379946411       -0.0032792341       -0.0296385083
           0.0286020579       -0.0961947597        0.0613936384
           0.0114445311        0.1030364709        0.0340591907
          -0.0659693117        0.2396256910        0.0160251867
           0.1592745884       -0.0156701777        0.3886523023
          -0.1465379535        0.3381027033       -0.0026066945
          -0.2299793851        0.0680577313        0.0892388766
          -0.1942129319        0.0464781640        0.0882514160
          -0.2582671518        0.0769462038        0.0831942903
          -0.2164599537        0.0466329846        0.0643889883
          -0.0063774842       -0.1611397098       -0.0364890996
           0.0502590363        0.0027499594       -0.0081788460
           0.0400527026       -0.1150665155        0.1030665697
           0.0593255704       -0.0908254369        0.1524065464
          -0.0483570159       -0.2366982933        0.0101276839
vibration 13
          -0.0871208598        0.0083379532        0.0259356103
           0.2119489919        0.0747316357       -0.0564580121
           0.3208530278       -0.1848297180        0.0487241189
          -0.1080705952       -0.0113691635        0.0736843124
          -0.0590490556        0.0498360925        0.0243687947
          -0.0166239183        0.1321985701       -0.0502811103
          -0.0364856138       -0.0997377445       -0.0692739192
          -0.2357093838       -0.0007405138       -0.3095714733
          -0.1999289097       -0.1517872500       -0.1656144355
          -0.0030573925       -0.4065001127        0.1476950766
          -0.1493890736        0.0213283116        0.0462859271
          -0.1290437719        0.0105183217        0.0408990881
          -0.1325339066        0.0090583970        0.0493096606
          -0.1377114670        0.0230689425        0.0479204097
          -0.0914503674        0.0399061140       -0.0406706101
          -0.0261110070        0.2143406374       -0.0995866577
           0.0328587144        0.1846158567       -0.0378835513
           0.0529799129        0.0704710112        0.0130281492
          -0.3243894788        0.0549609228        0.0571692486
vibration 14
           0.0025567080        0.0011404700       -0.0561000108
           0.1066525395        0.1408401246       -0.1290162352
          -0.0821256480       -0.0916261251        0.1371264913
           0.0003582431       -0.0689383270        0.0141975536
          -0.0423760995       -0.0000457977       -0.0362603316
           0.0507274803       -0.1514962643        0.1045981548
          -0.0967621889        0.1523625599       -0.1686992568
          -0.2524920259        0.2510415269       -0.3365962158
          -0.1228437351        0.0838038480       -0.0839748265
          -0.1541090582        0.0442897418       -0.0263113232
           0.0293282951       -0.0128415448       -0.0218949963
           0.0360395297       -0.0170338279       -0.0140091148
           0.0458763161       -0.0228901448       -0.0172268380
           0.0066828039       -0.0096098947       -0.0039546912
           0.0596656345        0.0756592124        0.1800912645
           0.1669825938       -0.4667939084        0.2406236563
          -0.0258389656       -0.0588546657       -0.1834057849
           0.0518146135       -0.2304589766       -0.0598877974
           0.1906558484       -0.0287590627        0.1665708838
vibration 15
          -0.0780579876       -0.0766954998       -0.0918566376
           0.3890154406        0.0201240682       -0.0537015178
          -0.2406323876        0.2068594279        0.1330723377
           0.0539325541       -0.1196150891       -0.0496166528
          -0.1361876946       -0.0292244470       -0.0481082025
          -0.0291521451        0.0817462446       -0.0745493201
           0.1394522485       -0.1689551222        0.1673225782
          -0.1051036860        0.0368051351       -0.0675182668
           0.1308598186       -0.2837170313        0.3411157502
           0.0353901212       -0.2605338568        0.3500049074
          -0.0279240423        0.0010246829       -0.0001716943
          -0.0714525545        0.0307397601        0.0551729214
           0.0778895861       -0.0015138192        0.0029378615
          -0.0555159871        0.0252783091        0.0411002374
           0.0011866811        0.0258486133       -0.0254429392
          -0.0351002530        0.1655140536       -0.1200612815
          -0.0107743418        0.0660061525       -0.0159427548
          -0.0153242008        0.1080478110        0.0059848596
           0.0718549472        0.2228425236       -0.1276699742
vibration 16
          -0.0235538066       -0.2377423712        0.1510436282
           0.0764866545        0.0312924858       -0.0129176748
          -0.0365422676       -0.1226694596        0.1017347350
          -0.0084758563        0.6223852034       -0.5717040747
          -0.0039154163       -0.1783334730        0.1754687113
          -0.0093762448       -0.0030011893        0.0066884523
           0.0193988699       -0.0071019557        0.0007213625
          -0.0664621696        0.0523837620       -0.0936231363
          -0.0060266234       -0.0335962372        0.0152934635
           0.0093186287       -0.0604398955        0.0543549394
          -0.0198394936       -0.0089854684        0.0091138409
          -0.1590521845        0.0763041716        0.0655794834
           0.0280910906        0.0867355928       -0.0346678037
           0.1092034607        0.0198386169       -0.0445254134
           0.0109026908        0.0267126359        0.0369088941
           0.0114252562       -0.0399265929        0.0194113360
          -0.0106313607        0.0436204247       -0.0679359367
          -0.0020769323       -0.0442400589       -0.0615880098
           0.0808279750        0.0435302864        0.0000811063
vibration 17
          -0.1754363990       -0.1252116700       -0.1266993981
          -0.0582865610        0.0133859437        0.0511358339
           0.0384730394       -0.0528243439       -0.0890417331
           0.4408978573       -0.1100210283       -0.0898450831
          -0.0595150939        0.1306802422        0.1416679513
           0.0203217398       -0.0148500758        0.0133830215
          -0.0222883543        0.0244948724       -0.0201964450
           0.0507551768       -0.0313679565        0.0554755287
           0.0036648967        0.0743570451       -0.0710405221
           0.0012145411        0.0591732370       -0.0732305430
          -0.1724375383        0.0492131351        0.0658431975
          -0.4208833259        0.2202099183        0.2871845516
           0.2787376234        0.0848395336        0.0612739422
          -0.1825296281        0.1988803997        0.2223223915
           0.0423203493        0.0341436259        0.0100806233
          -0.0044437799       -0.0680448098        0.0580898529
          -0.0175715754       -0.0733978778        0.0296330388
          -0.0351357691        0.0323649177       -0.0404180307
           0.2305771531        0.0237497186       -0.0677155045
vibration 18
           0.0234947855        0.0236753542        0.0265700208
          -0.0083040146        0.0006971499       -0.0400741745
          -0.0520175946       -0.0941588396       -0.1076236621
          -0.0009529011       -0.0106234008        0.0062778590
           0.0126683924       -0.0096581427       -0.0197450456
          -0.0088948089        0.1433710557       -0.0237715474
           0.0372416189       -0.0725409389        0.0745914060
           0.0685024712       -0.0674512790        0.1244964340
           0.0876817124       -0.0737589462        0.1316741231
           0.0292490765       -0.0070711453        0.0335298342
          -0.0227464197        0.0120332178        0.0129493171
           0.0145651019       -0.0126957769       -0.0092261715
          -0.0665081710        0.0021112961        0.0164604580
          -0.0316201103       -0.0082771030       -0.0004804149
           0.0560886530        0.0792097446        0.1179852319
           0.0751060914       -0.3937061568        0.2507163261
          -0.2294905844        0.1153123828       -0.3815039809
          -0.1787059468        0.1322305289       -0.4908351318
          -0.0785199790       -0.1809684351        0.2953657998
vibration 19
           0.0075653645        0.0093804885        0.0069533785
          -0.0157481265       -0.0001454060       -0.0152855559
           0.0247243573       -0.0084448377       -0.0264570796
          -0.0104212839       -0.0007667008        0.0052148529
           0.0052929634       -0.0015839326       -0.0036156962
          -0.0563382156        0.0190500131        0.0224145995
           0.0157593199       -0.0241185906        0.0205159824
          -0.0179619138        0.0260914398        0.0059108370
           0.0072803644       -0.0552680071        0.0640637096
          -0.0175706285       -0.0152474115        0.0466042174
          -0.0034003887        0.0039450412        0.0029079168
           0.0215945385       -0.0126689274       -0.0138777513
          -0.0294811170       -0.0029371684        0.0048512674
          -0.0049400642       -0.0084573502       -0.0074201353
          -0.0593370191       -0.0006557488        0.0361762423
           0.1579624623       -0.0207538418       -0.0556286471
          -0.0393016755        0.2557507508       -0.3089035862
           0.1795552485       -0.2127735868        0.1731222063
           0.7344142532        0.1074271114       -0.3543029834
vibration 20
           0.1570744416        0.0703523881        0.0867323945
           0.0247891644        0.1064954471        0.0585379911
          -0.0622254593       -0.0885117155       -0.1262439288
           0.0509751151       -0.0553723590       -0.0698692940
          -0.0582670075       -0.0760693242       -0.0830585298
           0.0370547932       -0.1145114401        0.0344235563
           0.0216165493        0.0074034683        0.0678557329
           0.0310521926       -0.1227130681       -0.0209886964
          -0.0916054393        0.1024821330       -0.2109396591
           0.1369839486       -0.2633726726        0.1807092348
          -0.1277698362        0.0741217979        0.0743207854
           0.0698333306       -0.0556504937       -0.0734618680
          -0.3949768014        0.0242878559        0.0937354482
          -0.1604272337       -0.0442802528       -0.0177694795
          -0.0085987361        0.1052912695       -0.0265023267
          -0.0609573902        0.0982959831       -0.0367063140
           0.1535935938       -0.1729458445        0.3337144912
           0.0442311871       -0.0181220095        0.2424278624
          -0.0241255022        0.4052379437       -0.1426431927
vibration 21
           0.1026054784        0.0097458534        0.0332786561
           0.0177398574       -0.0784253298        0.0243524623
           0.0643475650        0.0725459960        0.0919441343
           0.0402100434       -0.0401976430       -0.0631387271
          -0.0589863451       -0.0465274851       -0.0457644400
           0.0692947148        0.0715702026       -0.0680910162
          -0.0582795968        0.0270651758       -0.0891615833
           0.0282366707        0.0451504306        0.0677649125
           0.0759696424        0.0242928590        0.0638750000
          -0.1038312307        0.2502070495       -0.2293704466
          -0.0998765656        0.0663258472        0.0554983329
           0.1228278120       -0.0816832344       -0.0784331869
          -0.3088903914       -0.0080829536        0.0829028063
          -0.1587631171       -0.0536193348       -0.0172308452
          -0.0600527959       -0.0864503793        0.0667628737
          -0.1795783781       -0.0462252303        0.1135415705
          -0.0959494088       -0.2223667044        0.0931579128
          -0.2392469870        0.3180426372       -0.3530910167
           0.3963409773       -0.1405802160       -0.1083503867
vibration 22
          -0.0909636377       -0.0169996866       -0.0084508375
           0.0045899920        0.0430427934       -0.0280680652
          -0.0144353484       -0.0346122265       -0.0517267000
          -0.0540499358        0.0279586294        0.0422535378
           0.0403132615        0.0272253243        0.0248188618
           0.1333384562       -0.0203738670       -0.0349084975
           0.0266303155        0.0046349317        0.0484525209
          -0.0012490433       -0.0534782485       -0.0411568990
          -0.0689170274        0.0170042264       -0.0768110894
           0.0722367947       -0.1688507010        0.1468379923
           0.0748579624       -0.0278406065       -0.0386523641
           0.0422402144       -0.0084624335        0.0127598907
           0.1618810375       -0.0317030504       -0.0368154890
           0.0552451811        0.0050614879        0.0041478871
          -0.1296765762        0.0115286300        0.0533847859
          -0.2515171626       -0.0389652357        0.1586620462
           0.0185817041       -0.4048302985        0.3620974323
          -0.2313376066        0.3477811415       -0.2119776748
           0.3837987446        0.1405526672       -0.2230791764
vibration 23
          -0.0058984743        0.0344761785       -0.0129580074
           0.0070330909       -0.0004496490        0.0456834688
          -0.0121822762       -0.0435431991       -0.0376224524
          -0.0086845985        0.0042960956        0.0093769532
           0.0045334414       -0.0016272837       -0.0040286321
          -0.0185270854       -0.0208535013       -0.0821965772
           0.0075997751       -0.0537301311       -0.0844678030