
    -----------------------------------------------------------------------
          Psi4: An Open-Source Ab Initio Electronic Structure Package
                               Psi4 1.2.1 release

                         Git: Rev {HEAD} 406f4de 


    R. M. Parrish, L. A. Burns, D. G. A. Smith, A. C. Simmonett,
    A. E. DePrince III, E. G. Hohenstein, U. Bozkaya, A. Yu. Sokolov,
    R. Di Remigio, R. M. Richard, J. F. Gonthier, A. M. James,
    H. R. McAlexander, A. Kumar, M. Saitow, X. Wang, B. P. Pritchard,
    P. Verma, H. F. Schaefer III, K. Patkowski, R. A. King, E. F. Valeev,
    F. A. Evangelista, J. M. Turney, T. D. Crawford, and C. D. Sherrill,
    J. Chem. Theory Comput. 13(7) pp 3185--3197 (2017).
    (doi: 10.1021/acs.jctc.7b00174)


                         Additional Contributions by
    P. Kraus, H. Kruse, M. H. Lechner, M. C. Schieber, and R. A. Shaw

    -----------------------------------------------------------------------


    Psi4 started on: Tuesday, 12 February 2019 01:58PM

    Process ID: 1809
    Host:       localhost.localdomain
    PSIDATADIR: /root/psi4conda/share/psi4
    Memory:     500.0 MiB
    Threads:    1
    
  ==> Input File <==

--------------------------------------------------------------------------
molecule{
0 1
    N           -0.973522792901     0.200462512179     0.584594887409
    N            1.415613427256    -0.122105903715     0.111311600751
    O            0.653098557007    -0.733101806966    -0.821195067487
    C           -0.849724477232    -0.610993997377    -0.413089844282
    O           -1.538067118707    -1.295608923986    -1.137114186781
    C            0.671671312169     2.080945712604    -0.701450981713
    C            1.924029064067    -1.028463608556     1.130755575096
    H            1.065841281248    -1.441001360253     1.669984534131
    H            2.474852995770    -1.823448563536     0.628690605011
    H            2.581853824029    -0.480896758523     1.806716635894
    C           -2.341013104663     0.496050956150     0.967466981268
    H           -2.959908218256    -0.411174081330     0.974214995267
    H           -2.351858871230     0.937907602591     1.967546805544
    H           -2.809577714244     1.207272035813     0.271750661585
    C            1.153686384299     1.128656626822     0.332622026097
    H            0.268005702844     1.558622822448    -1.567418310453
    H           -0.096755441838     2.723748691745    -0.267773158209
    H            1.516956098531     2.711639810947    -1.006965033045
    H            1.561381434758     1.523889032007     1.260869415077

}

set{
   basis 6-31+G(d)
   freeze_core True
   full_hess_every 0
   normal_modes_write True
}

set_num_threads(24)
frequencies('m06-2x')
--------------------------------------------------------------------------
  Threads set to 24 by Python driver.
gradient() will perform analytic gradient computation.

*** tstart() called on localhost.localdomain
*** at Tue Feb 12 13:58:19 2019

   => Loading Basis Set <=

    Name: 6-31+G(D)
    Role: ORBITAL
    Keyword: BASIS
    atoms 1-2                entry N          line   138 file /root/psi4conda/share/psi4/basis/6-31pg_d_.gbs 
    atoms 3, 5               entry O          line   157 file /root/psi4conda/share/psi4/basis/6-31pg_d_.gbs 
    atoms 4, 6-7, 11, 15     entry C          line   119 file /root/psi4conda/share/psi4/basis/6-31pg_d_.gbs 
    atoms 8-10, 12-14, 16-19 entry H          line    46 file /root/psi4conda/share/psi4/basis/6-31pg_d_.gbs 


         ---------------------------------------------------------
                                   SCF
            by Justin Turney, Rob Parrish, Andy Simmonett
                             and Daniel Smith
                              RKS Reference
                       24 Threads,    500 MiB Core
         ---------------------------------------------------------

  ==> Geometry <==

    Molecular point group: c1
    Full point group: C1

    Geometry (in Angstrom), charge = 0, multiplicity = 1:

       Center              X                  Y                   Z               Mass       
    ------------   -----------------  -----------------  -----------------  -----------------
         N           -0.973522792901     0.200462512179     0.584594887409    14.003074004780
         N            1.415613427256    -0.122105903715     0.111311600751    14.003074004780
         O            0.653098557007    -0.733101806966    -0.821195067487    15.994914619560
         C           -0.849724477232    -0.610993997377    -0.413089844282    12.000000000000
         O           -1.538067118707    -1.295608923986    -1.137114186781    15.994914619560
         C            0.671671312169     2.080945712604    -0.701450981713    12.000000000000
         C            1.924029064067    -1.028463608556     1.130755575096    12.000000000000
         H            1.065841281248    -1.441001360253     1.669984534131     1.007825032070
         H            2.474852995770    -1.823448563536     0.628690605011     1.007825032070
         H            2.581853824029    -0.480896758523     1.806716635894     1.007825032070
         C           -2.341013104663     0.496050956150     0.967466981268    12.000000000000
         H           -2.959908218256    -0.411174081330     0.974214995267     1.007825032070
         H           -2.351858871230     0.937907602591     1.967546805544     1.007825032070
         H           -2.809577714244     1.207272035813     0.271750661585     1.007825032070
         C            1.153686384299     1.128656626822     0.332622026097    12.000000000000
         H            0.268005702844     1.558622822448    -1.567418310453     1.007825032070
         H           -0.096755441838     2.723748691745    -0.267773158209     1.007825032070
         H            1.516956098531     2.711639810947    -1.006965033045     1.007825032070
         H            1.561381434758     1.523889032007     1.260869415077     1.007825032070

  Running in c1 symmetry.

  Rotational constants: A =      0.07115  B =      0.04718  C =      0.04000 [cm^-1]
  Rotational constants: A =   2132.90540  B =   1414.34499  C =   1199.24231 [MHz]
  Nuclear repulsion =  488.376503768896157

  Charge       = 0
  Multiplicity = 1
  Electrons    = 70
  Nalpha       = 35
  Nbeta        = 35

  ==> Algorithm <==

  SCF Algorithm Type is DF.
  DIIS enabled.
  MOM disabled.
  Fractional occupation disabled.
  Guess Type is SAD.
  Energy threshold   = 1.00e-08
  Density threshold  = 1.00e-08
  Integral threshold = 0.00e+00

  ==> Primary Basis <==

  Basis Set: 6-31+G(D)
    Blend: 6-31+G(D)
    Number of shells: 92
    Number of basis function: 191
    Number of Cartesian functions: 191
    Spherical Harmonics?: false
    Max angular momentum: 2

  ==> DFT Potential <==

   => Composite Functional: M06-2X <= 

    Hybrid M06-2X Meta-GGA XC Functional

    Y. Zhao and D. G. Truhlar,  Theor. Chem. Acc., 120, 215, 2008


    Deriv               =              1
    GGA                 =           TRUE
    Meta                =           TRUE

    Exchange Hybrid     =           TRUE
    MP2 Hybrid          =          FALSE

   => Exchange Functionals <=

    1.0000   XC_HYB_MGGA_X_M06_2X

   => Exact (HF) Exchange <=

    0.5400               HF 

   => Correlation Functionals <=

    1.0000   XC_MGGA_C_M06_2X

   => Molecular Quadrature <=

    Radial Scheme       =       TREUTLER
    Pruning Scheme      =           FLAT
    Nuclear Scheme      =       TREUTLER

    BS radius alpha     =              1
    Pruning alpha       =              1
    Radial Points       =             75
    Spherical Points    =            302
    Total Points        =         430350
    Total Blocks        =           3150
    Max Points          =            256
    Max Functions       =            188

   => Loading Basis Set <=

    Name: (6-31+G(D) AUX)
    Role: JKFIT
    Keyword: DF_BASIS_SCF
    atoms 1-2                entry N          line   252 file /root/psi4conda/share/psi4/basis/heavy-aug-cc-pvdz-jkfit.gbs 
    atoms 3, 5               entry O          line   310 file /root/psi4conda/share/psi4/basis/heavy-aug-cc-pvdz-jkfit.gbs 
    atoms 4, 6-7, 11, 15     entry C          line   194 file /root/psi4conda/share/psi4/basis/heavy-aug-cc-pvdz-jkfit.gbs 
    atoms 8-10, 12-14, 16-19 entry H          line   116 file /root/psi4conda/share/psi4/basis/heavy-aug-cc-pvdz-jkfit.gbs 

  ==> Pre-Iterations <==

   -------------------------------------------------------
    Irrep   Nso     Nmo     Nalpha   Nbeta   Ndocc  Nsocc
   -------------------------------------------------------
     A        191     191       0       0       0       0
   -------------------------------------------------------
    Total     191     191      35      35      35       0
   -------------------------------------------------------

  ==> Integral Setup <==

  ==> DiskDFJK: Density-Fitted J/K Matrices <==

    J tasked:                  Yes
    K tasked:                  Yes
    wK tasked:                  No
    OpenMP threads:             24
    Integrals threads:          24
    Memory (MB):               375
    Algorithm:                Core
    Integral Cache:           NONE
    Schwarz Cutoff:          1E-12
    Fitting Condition:       1E-12

   => Auxiliary Basis Set <=

  Basis Set: (6-31+G(D) AUX)
    Blend: HEAVY-AUG-CC-PVDZ-JKFIT
    Number of shells: 342
    Number of basis function: 1159
    Number of Cartesian functions: 1159
    Spherical Harmonics?: false
    Max angular momentum: 3

  Minimum eigenvalue in the overlap matrix is 5.5152880914E-05.
  Using Symmetric Orthogonalization.

  SCF Guess: Superposition of Atomic Densities via on-the-fly atomic UHF.

  ==> Iterations <==

                           Total Energy        Delta E     RMS |[F,P]|

   @DF-RKS iter   0:  -458.90802672139256   -4.58908e+02   1.23599e-01 
   @DF-RKS iter   1:  -455.96723036078248    2.94080e+00   1.83718e-02 
   @DF-RKS iter   2:  -455.76349792613456    2.03732e-01   2.71106e-02 DIIS
   @DF-RKS iter   3:  -456.20120846639384   -4.37711e-01   3.08577e-03 DIIS
   @DF-RKS iter   4:  -456.20585134294504   -4.64288e-03   2.10358e-03 DIIS
   @DF-RKS iter   5:  -456.20850687198475   -2.65553e-03   4.30727e-04 DIIS
   @DF-RKS iter   6:  -456.20873494114073   -2.28069e-04   1.64553e-04 DIIS
   @DF-RKS iter   7:  -456.20875728283880   -2.23417e-05   6.66989e-05 DIIS
   @DF-RKS iter   8:  -456.20876090174545   -3.61891e-06   1.78470e-05 DIIS
   @DF-RKS iter   9:  -456.20876135993325   -4.58188e-07   4.76809e-06 DIIS
   @DF-RKS iter  10:  -456.20876140301777   -4.30845e-08   3.05107e-06 DIIS
   @DF-RKS iter  11:  -456.20876141138314   -8.36536e-09   7.17669e-07 DIIS
   @DF-RKS iter  12:  -456.20876141213108   -7.47946e-10   2.92902e-07 DIIS
   @DF-RKS iter  13:  -456.20876141229127   -1.60185e-10   9.72796e-08 DIIS
   @DF-RKS iter  14:  -456.20876141230957   -1.83036e-11   3.76103e-08 DIIS
   @DF-RKS iter  15:  -456.20876141231366   -4.09273e-12   1.26174e-08 DIIS
   @DF-RKS iter  16:  -456.20876141231406   -3.97904e-13   5.21013e-09 DIIS

  ==> Post-Iterations <==

    Orbital Energies [Eh]
    ---------------------

    Doubly Occupied:                                                      

       1A    -19.698151     2A    -19.594097     3A    -14.904990  
       4A    -14.723252     5A    -10.675960     6A    -10.657231  
       7A    -10.615241     8A    -10.580850     9A    -10.552534  
      10A     -1.267777    11A     -1.138987    12A     -1.027889  
      13A     -0.984718    14A     -0.909723    15A     -0.824581  
      16A     -0.776167    17A     -0.717336    18A     -0.641350  
      19A     -0.626673    20A     -0.599560    21A     -0.557618  
      22A     -0.533503    23A     -0.527050    24A     -0.505906  
      25A     -0.498710    26A     -0.496315    27A     -0.491257  
      28A     -0.477076    29A     -0.451820    30A     -0.444158  
      31A     -0.403687    32A     -0.375494    33A     -0.359303  
      34A     -0.294306    35A     -0.273067  

    Virtual:                                                              

      36A     -0.030777    37A     -0.004449    38A      0.018734  
      39A      0.025369    40A      0.031049    41A      0.047068  
      42A      0.054746    43A      0.059668    44A      0.060887  
      45A      0.068508    46A      0.078758    47A      0.085876  
      48A      0.096391    49A      0.101851    50A      0.108213  
      51A      0.116064    52A      0.121239    53A      0.129771  
      54A      0.137285    55A      0.142450    56A      0.153742  
      57A      0.166118    58A      0.173455    59A      0.191724  
      60A      0.201725    61A      0.209065    62A      0.220666  
      63A      0.227556    64A      0.228996    65A      0.241467  
      66A      0.242744    67A      0.254805    68A      0.266343  
      69A      0.274215    70A      0.276992    71A      0.282768  
      72A      0.291342    73A      0.305227    74A      0.315210  
      75A      0.326611    76A      0.334351    77A      0.347907  
      78A      0.353719    79A      0.360842    80A      0.362457  
      81A      0.370632    82A      0.379860    83A      0.390513  
      84A      0.398874    85A      0.411605    86A      0.442571  
      87A      0.452756    88A      0.483728    89A      0.486209  
      90A      0.515686    91A      0.650645    92A      0.667696  
      93A      0.682251    94A      0.721877    95A      0.731244  
      96A      0.752803    97A      0.765843    98A      0.771819  
      99A      0.790476   100A      0.803747   101A      0.822517  
     102A      0.835346   103A      0.844348   104A      0.894399  
     105A      0.924994   106A      0.956227   107A      0.966686  
     108A      0.984122   109A      0.992935   110A      1.000727  
     111A      1.022105   112A      1.038649   113A      1.051266  
     114A      1.072599   115A      1.087903   116A      1.104062  
     117A      1.115771   118A      1.134528   119A      1.143845  
     120A      1.175538   121A      1.188989   122A      1.236405  
     123A      1.263251   124A      1.290548   125A      1.314336  
     126A      1.353543   127A      1.386595   128A      1.397042  
     129A      1.408472   130A      1.434261   131A      1.436523  
     132A      1.453053   133A      1.493560   134A      1.502343  
     135A      1.514486   136A      1.569639   137A      1.603016  
     138A      1.614288   139A      1.648355   140A      1.690954  
     141A      1.716311   142A      1.747241   143A      1.766465  
     144A      1.806697   145A      1.881187   146A      1.902305  
     147A      1.921201   148A      1.955495   149A      1.970078  
     150A      1.989449   151A      2.027467   152A      2.053969  
     153A      2.080429   154A      2.093573   155A      2.133108  
     156A      2.164079   157A      2.197845   158A      2.216558  
     159A      2.253829   160A      2.264456   161A      2.287923  
     162A      2.304795   163A      2.324516   164A      2.332345  
     165A      2.372048   166A      2.412713   167A      2.426553  
     168A      2.441387   169A      2.490308   170A      2.507308  
     171A      2.597163   172A      2.633955   173A      2.752263  
     174A      2.820081   175A      2.841964   176A      2.872299  
     177A      2.878765   178A      2.930526   179A      3.051450  
     180A      3.153187   181A      3.202181   182A      3.365128  
     183A      4.163282   184A      4.251507   185A      4.288816  
     186A      4.392293   187A      4.441351   188A      4.477894  
     189A      4.498524   190A      4.646991   191A      4.720060  

    Final Occupation by Irrep:
              A 
    DOCC [    35 ]

  Energy converged.

  @DF-RKS Final Energy:  -456.20876141231406

   => Energetics <=

    Nuclear Repulsion Energy =            488.3765037688961570
    One-Electron Energy =               -1588.2176264308764075
    Two-Electron Energy =                 673.3368921051144298
    DFT Exchange-Correlation Energy =     -29.7045308554481551
    Empirical Dispersion Energy =           0.0000000000000000
    VV10 Nonlocal Energy =                  0.0000000000000000
    Total Energy =                       -456.2087614123140611



Properties will be evaluated at   0.000000,   0.000000,   0.000000 [a0]

Properties computed using the SCF density matrix

  Nuclear Dipole Moment: [e a0]
     X:     1.1670      Y:     6.0897      Z:     5.3674

  Electronic Dipole Moment: [e a0]
     X:     0.9002      Y:    -4.4847      Z:    -3.9219

  Dipole Moment: [e a0]
     X:     2.0672      Y:     1.6051      Z:     1.4455     Total:     2.9898

  Dipole Moment: [D]
     X:     5.2543      Y:     4.0797      Z:     3.6741     Total:     7.5994


*** tstop() called on localhost.localdomain at Tue Feb 12 13:58:36 2019
Module time:
	user time   =     339.95 seconds =       5.67 minutes
	system time =       6.69 seconds =       0.11 minutes
	total time  =         17 seconds =       0.28 minutes
Total time:
	user time   =     339.95 seconds =       5.67 minutes
	system time =       6.69 seconds =       0.11 minutes
	total time  =         17 seconds =       0.28 minutes

*** tstart() called on localhost.localdomain
*** at Tue Feb 12 13:58:36 2019


         ------------------------------------------------------------
                                   SCF GRAD                          
                          Rob Parrish, Justin Turney,                
                       Andy Simmonett, and Alex Sokolov              
         ------------------------------------------------------------

  ==> Geometry <==

    Molecular point group: c1
    Full point group: C1

    Geometry (in Angstrom), charge = 0, multiplicity = 1:

       Center              X                  Y                   Z               Mass       
    ------------   -----------------  -----------------  -----------------  -----------------
         N           -0.973522792901     0.200462512179     0.584594887409    14.003074004780
         N            1.415613427256    -0.122105903715     0.111311600751    14.003074004780
         O            0.653098557007    -0.733101806966    -0.821195067487    15.994914619560
         C           -0.849724477232    -0.610993997377    -0.413089844282    12.000000000000
         O           -1.538067118707    -1.295608923986    -1.137114186781    15.994914619560
         C            0.671671312169     2.080945712604    -0.701450981713    12.000000000000
         C            1.924029064067    -1.028463608556     1.130755575096    12.000000000000
         H            1.065841281248    -1.441001360253     1.669984534131     1.007825032070
         H            2.474852995770    -1.823448563536     0.628690605011     1.007825032070
         H            2.581853824029    -0.480896758523     1.806716635894     1.007825032070
         C           -2.341013104663     0.496050956150     0.967466981268    12.000000000000
         H           -2.959908218256    -0.411174081330     0.974214995267     1.007825032070
         H           -2.351858871230     0.937907602591     1.967546805544     1.007825032070
         H           -2.809577714244     1.207272035813     0.271750661585     1.007825032070
         C            1.153686384299     1.128656626822     0.332622026097    12.000000000000
         H            0.268005702844     1.558622822448    -1.567418310453     1.007825032070
         H           -0.096755441838     2.723748691745    -0.267773158209     1.007825032070
         H            1.516956098531     2.711639810947    -1.006965033045     1.007825032070
         H            1.561381434758     1.523889032007     1.260869415077     1.007825032070

  Nuclear repulsion =  488.376503768896157

  ==> Basis Set <==

  Basis Set: 6-31+G(D)
    Blend: 6-31+G(D)
    Number of shells: 92
    Number of basis function: 191
    Number of Cartesian functions: 191
    Spherical Harmonics?: false
    Max angular momentum: 2

  ==> DFJKGrad: Density-Fitted SCF Gradients <==

    Gradient:                    1
    J tasked:                  Yes
    K tasked:                  Yes
    wK tasked:                  No
    OpenMP threads:             24
    Integrals threads:          24
    Memory (MB):               375
    Schwarz Cutoff:          0E+00
    Fitting Condition:       1E-12

   => Auxiliary Basis Set <=

  Basis Set: (6-31+G(D) AUX)
    Blend: HEAVY-AUG-CC-PVDZ-JKFIT
    Number of shells: 342
    Number of basis function: 1159
    Number of Cartesian functions: 1159
    Spherical Harmonics?: false
    Max angular momentum: 3

  ==> DFT Potential <==

   => Composite Functional: M06-2X <= 

    Hybrid M06-2X Meta-GGA XC Functional

    Y. Zhao and D. G. Truhlar,  Theor. Chem. Acc., 120, 215, 2008


    Deriv               =              1
    GGA                 =           TRUE
    Meta                =           TRUE

    Exchange Hybrid     =           TRUE
    MP2 Hybrid          =          FALSE

   => Exchange Functionals <=

    1.0000   XC_HYB_MGGA_X_M06_2X

   => Exact (HF) Exchange <=

    0.5400               HF 

   => Correlation Functionals <=

    1.0000   XC_MGGA_C_M06_2X

   => Molecular Quadrature <=

    Radial Scheme       =       TREUTLER
    Pruning Scheme      =           FLAT
    Nuclear Scheme      =       TREUTLER

    BS radius alpha     =              1
    Pruning alpha       =              1
    Radial Points       =             75
    Spherical Points    =            302
    Total Points        =         430350
    Total Blocks        =           3150
    Max Points          =            256
    Max Functions       =            188


  -Total Gradient:
     Atom            X                  Y                   Z
    ------   -----------------  -----------------  -----------------
       1        0.000040214283    -0.000015589579    -0.000031747574
       2       -0.000086273074    -0.000034691129    -0.000065809007
       3        0.000274189562     0.000045278742    -0.000040928094
       4       -0.000427419441    -0.000008315911     0.000090103584
       5        0.000086658220     0.000054036869     0.000036921615
       6        0.000000490273     0.000002379557     0.000021463546
       7        0.000002637578    -0.000013854681     0.000003843116
       8       -0.000019171758    -0.000011346524    -0.000005422956
       9       -0.000018289100    -0.000019564141    -0.000016861329
      10        0.000001331228    -0.000019248548    -0.000005761562
      11        0.000194903591    -0.000025985771    -0.000024882632
      12       -0.000128440977    -0.000194889587     0.000002704895
      13        0.000043476922     0.000137547951     0.000204293199
      14       -0.000106244139     0.000185846104    -0.000187150126
      15        0.000003036180    -0.000031131819    -0.000006585851
      16       -0.000006688944     0.000006470256    -0.000004095133
      17        0.000005414678     0.000018592941     0.000013491592
      18        0.000014490068     0.000006530535    -0.000010656849
      19        0.000013115360    -0.000005130232    -0.000000981264


*** tstop() called on localhost.localdomain at Tue Feb 12 13:58:40 2019
Module time:
	user time   =      77.82 seconds =       1.30 minutes
	system time =       3.28 seconds =       0.05 minutes
	total time  =          4 seconds =       0.07 minutes
Total time:
	user time   =     417.81 seconds =       6.96 minutes
	system time =       9.98 seconds =       0.17 minutes
	total time  =         21 seconds =       0.35 minutes

  Based on options and gradient (rms=1.90E-04), recommend projecting translations and projecting rotations.
hessian() will perform frequency computation by finite difference of analytic gradients.

-------------------------------------------------------------

  Using finite-differences of gradients to determine vibrational frequencies and 
  normal modes.  Resulting frequencies are only valid at stationary points.
	Generating geometries for use with 3-point formula.
	Displacement size will be 5.00e-03.
	Number of atoms is 19.
	Number of irreps is 1.
	Number of SALCS is 51.
	Translations projected? 1. Rotations projected? 1.
	Index of salcs per irrep:
	 1 :  0  1  2  3  4  5  6  7  8  9  10  11  12  13  14  15  16  17  18  19  20  21  22  23  24  25  26  27  28  29  30  31  32  33  34  35  36  37  38  39  40  41  42  43  44  45  46  47  48  49  50 
	Number of SALC's per irrep:
		 Irrep 1: 51
	Number of geometries (including reference) is 103.
	Number of displacements per irrep:
	  Irrep 1: 102

  //>>>>>>>>>>>>>>>>>>>>>>>>>>>>>>>>>>>//
  //   Loading displacement 1 of 103   //
  //<<<<<<<<<<<<<<<<<<<<<<<<<<<<<<<<<<<//
gradient() will perform analytic gradient computation.

*** tstart() called on localhost.localdomain
*** at Tue Feb 12 13:58:40 2019

   => Loading Basis Set <=

    Name: 6-31+G(D)
    Role: ORBITAL
    Keyword: BASIS
    atoms 1-2                entry N          line   138 file /root/psi4conda/share/psi4/basis/6-31pg_d_.gbs 
    atoms 3, 5               entry O          line   157 file /root/psi4conda/share/psi4/basis/6-31pg_d_.gbs 
    atoms 4, 6-7, 11, 15     entry C          line   119 file /root/psi4conda/share/psi4/basis/6-31pg_d_.gbs 
    atoms 8-10, 12-14, 16-19 entry H          line    46 file /root/psi4conda/share/psi4/basis/6-31pg_d_.gbs 


         ---------------------------------------------------------
                                   SCF
            by Justin Turney, Rob Parrish, Andy Simmonett
                             and Daniel Smith
                              RKS Reference
                       24 Threads,    500 MiB Core
         ---------------------------------------------------------

  ==> Geometry <==

    Molecular point group: c1
    Full point group: C1

    Geometry (in Angstrom), charge = 0, multiplicity = 1:

       Center              X                  Y                   Z               Mass       
    ------------   -----------------  -----------------  -----------------  -----------------
         N           -0.974185234667     0.200466562642     0.584611827503    14.003074004780
         N            1.415696027894    -0.122112537581     0.111287099012    14.003074004780
         O            0.653162253795    -0.733104192243    -0.821206895219    15.994914619560
         C           -0.849653179323    -0.610989747399    -0.413075666653    12.000000000000
         O           -1.538011470622    -1.295600929840    -1.137088670958    15.994914619560
         C            0.671750089499     2.080943148749    -0.701460951823    12.000000000000
         C            1.924125049175    -1.028473382994     1.130721606083    12.000000000000
         H            1.065944655314    -1.441007582583     1.669965042256     1.007825032070
         H            2.474936647456    -1.823460497174     0.628646523737     1.007825032070
         H            2.581963996384    -0.480910098775     1.806671748796     1.007825032070
         C           -2.340912883461     0.496061035435     0.967507727649    12.000000000000
         H           -2.959812076950    -0.411161144655     0.974265710184     1.007825032070
         H           -2.351739363449     0.937916958061     1.967588080883     1.007825032070
         H           -2.809486198553     1.207284820805     0.271800037130     1.007825032070
         C            1.153778585876     1.128651033186     0.332603008350    12.000000000000
         H            0.268067133704     1.558622795879    -1.567421725015     1.007825032070
         H           -0.096666214075     2.723749346508    -0.267769382045     1.007825032070
         H            1.517032525540     2.711633573790    -1.006989088991     1.007825032070
         H            1.561491468765     1.523880834247     1.260843673951     1.007825032070

  Running in c1 symmetry.

  Rotational constants: A =      0.07115  B =      0.04717  C =      0.04000 [cm^-1]
  Rotational constants: A =   2132.88576  B =   1414.26831  C =   1199.18650 [MHz]
  Nuclear repulsion =  488.372825788204750

  Charge       = 0
  Multiplicity = 1
  Electrons    = 70
  Nalpha       = 35
  Nbeta        = 35

  ==> Algorithm <==

  SCF Algorithm Type is DF.
  DIIS enabled.
  MOM disabled.
  Fractional occupation disabled.
  Guess Type is SAD.
  Energy threshold   = 1.00e-08
  Density threshold  = 1.00e-08
  Integral threshold = 0.00e+00

  ==> Primary Basis <==

  Basis Set: 6-31+G(D)
    Blend: 6-31+G(D)
    Number of shells: 92
    Number of basis function: 191
    Number of Cartesian functions: 191
    Spherical Harmonics?: false
    Max angular momentum: 2

  ==> DFT Potential <==

   => Composite Functional: M06-2X <= 

    Hybrid M06-2X Meta-GGA XC Functional

    Y. Zhao and D. G. Truhlar,  Theor. Chem. Acc., 120, 215, 2008


    Deriv               =              1
    GGA                 =           TRUE
    Meta                =           TRUE

    Exchange Hybrid     =           TRUE
    MP2 Hybrid          =          FALSE

   => Exchange Functionals <=

    1.0000   XC_HYB_MGGA_X_M06_2X

   => Exact (HF) Exchange <=

    0.5400               HF 

   => Correlation Functionals <=

    1.0000   XC_MGGA_C_M06_2X

   => Molecular Quadrature <=

    Radial Scheme       =       TREUTLER
    Pruning Scheme      =           FLAT
    Nuclear Scheme      =       TREUTLER

    BS radius alpha     =              1
    Pruning alpha       =              1
    Radial Points       =             75
    Spherical Points    =            302
    Total Points        =         430350
    Total Blocks        =           3150
    Max Points          =            256
    Max Functions       =            188

   => Loading Basis Set <=

    Name: (6-31+G(D) AUX)
    Role: JKFIT
    Keyword: DF_BASIS_SCF
    atoms 1-2                entry N          line   252 file /root/psi4conda/share/psi4/basis/heavy-aug-cc-pvdz-jkfit.gbs 
    atoms 3, 5               entry O          line   310 file /root/psi4conda/share/psi4/basis/heavy-aug-cc-pvdz-jkfit.gbs 
    atoms 4, 6-7, 11, 15     entry C          line   194 file /root/psi4conda/share/psi4/basis/heavy-aug-cc-pvdz-jkfit.gbs 
    atoms 8-10, 12-14, 16-19 entry H          line   116 file /root/psi4conda/share/psi4/basis/heavy-aug-cc-pvdz-jkfit.gbs 

  ==> Pre-Iterations <==

   -------------------------------------------------------
    Irrep   Nso     Nmo     Nalpha   Nbeta   Ndocc  Nsocc
   -------------------------------------------------------
     A        191     191       0       0       0       0
   -------------------------------------------------------
    Total     191     191      35      35      35       0
   -------------------------------------------------------

  ==> Integral Setup <==

  ==> DiskDFJK: Density-Fitted J/K Matrices <==

    J tasked:                  Yes
    K tasked:                  Yes
    wK tasked:                  No
    OpenMP threads:             24
    Integrals threads:          24
    Memory (MB):               375
    Algorithm:                Core
    Integral Cache:           NONE
    Schwarz Cutoff:          1E-12
    Fitting Condition:       1E-12

   => Auxiliary Basis Set <=

  Basis Set: (6-31+G(D) AUX)
    Blend: HEAVY-AUG-CC-PVDZ-JKFIT
    Number of shells: 342
    Number of basis function: 1159
    Number of Cartesian functions: 1159
    Spherical Harmonics?: false
    Max angular momentum: 3

  Minimum eigenvalue in the overlap matrix is 5.5165652534E-05.
  Using Symmetric Orthogonalization.

  SCF Guess: Superposition of Atomic Densities via on-the-fly atomic UHF.

  ==> Iterations <==

                           Total Energy        Delta E     RMS |[F,P]|

   @DF-RKS iter   0:  -458.49414676645154   -4.58494e+02   1.19061e-01 
   @DF-RKS iter   1:  -456.00435429690702    2.48979e+00   1.51398e-02 
   @DF-RKS iter   2:  -455.86320763200490    1.41147e-01   2.14205e-02 DIIS
   @DF-RKS iter   3:  -456.20050962029063   -3.37302e-01   2.48838e-03 DIIS
   @DF-RKS iter   4:  -456.20648970741240   -5.98009e-03   1.82741e-03 DIIS
   @DF-RKS iter   5:  -456.20852572461604   -2.03602e-03   4.91268e-04 DIIS
   @DF-RKS iter   6:  -456.20873490387112   -2.09179e-04   1.55432e-04 DIIS
   @DF-RKS iter   7:  -456.20875599381105   -2.10899e-05   7.38364e-05 DIIS
   @DF-RKS iter   8:  -456.20876042302314   -4.42921e-06   1.49908e-05 DIIS
   @DF-RKS iter   9:  -456.20876094452944   -5.21506e-07   5.17393e-06 DIIS
   @DF-RKS iter  10:  -456.20876098697528   -4.24458e-08   2.68479e-06 DIIS
   @DF-RKS iter  11:  -456.20876099695016   -9.97488e-09   6.98915e-07 DIIS
   @DF-RKS iter  12:  -456.20876099810846   -1.15830e-09   2.95765e-07 DIIS
   @DF-RKS iter  13:  -456.20876099829673   -1.88265e-10   1.03304e-07 DIIS
   @DF-RKS iter  14:  -456.20876099832026   -2.35332e-11   4.30125e-08 DIIS
   @DF-RKS iter  15:  -456.20876099832384   -3.58114e-12   1.96297e-08 DIIS
   @DF-RKS iter  16:  -456.20876099832537   -1.53477e-12   8.06396e-09 DIIS

  ==> Post-Iterations <==

    Orbital Energies [Eh]
    ---------------------

    Doubly Occupied:                                                      

       1A    -19.698213     2A    -19.594072     3A    -14.905047  
       4A    -14.723198     5A    -10.675977     6A    -10.657236  
       7A    -10.615270     8A    -10.580866     9A    -10.552466  
      10A     -1.267814    11A     -1.138983    12A     -1.027923  
      13A     -0.984762    14A     -0.909753    15A     -0.824606  
      16A     -0.776186    17A     -0.717361    18A     -0.641374  
      19A     -0.626703    20A     -0.599583    21A     -0.557661  
      22A     -0.533524    23A     -0.527087    24A     -0.505920  
      25A     -0.498724    26A     -0.496329    27A     -0.491287  
      28A     -0.477094    29A     -0.451862    30A     -0.444190  
      31A     -0.403713    32A     -0.375504    33A     -0.359255  
      34A     -0.294257    35A     -0.273002  

    Virtual:                                                              

      36A     -0.030816    37A     -0.004461    38A      0.018726  
      39A      0.025361    40A      0.031047    41A      0.047061  
      42A      0.054745    43A      0.059666    44A      0.060889  
      45A      0.068507    46A      0.078752    47A      0.085877  
      48A      0.096390    49A      0.101847    50A      0.108213  
      51A      0.116066    52A      0.121237    53A      0.129765  
      54A      0.137263    55A      0.142444    56A      0.153740  
      57A      0.166106    58A      0.173443    59A      0.191707  
      60A      0.201717    61A      0.209049    62A      0.220649  
      63A      0.227552    64A      0.228980    65A      0.241469  
      66A      0.242741    67A      0.254789    68A      0.266342  
      69A      0.274215    70A      0.277006    71A      0.282786  
      72A      0.291357    73A      0.305216    74A      0.315217  
      75A      0.326649    76A      0.334351    77A      0.347941  
      78A      0.353777    79A      0.360867    80A      0.362474  
      81A      0.370671    82A      0.379846    83A      0.390529  
      84A      0.398867    85A      0.411601    86A      0.442603  
      87A      0.452734    88A      0.483723    89A      0.486226  
      90A      0.515748    91A      0.650430    92A      0.667677  
      93A      0.682247    94A      0.721864    95A      0.731232  
      96A      0.752981    97A      0.765839    98A      0.771809  
      99A      0.790488   100A      0.803745   101A      0.822538  
     102A      0.835373   103A      0.844300   104A      0.894395  
     105A      0.925033   106A      0.956224   107A      0.966665  
     108A      0.984092   109A      0.992911   110A      1.000724  
     111A      1.022130   112A      1.038612   113A      1.051259  
     114A      1.072555   115A      1.087883   116A      1.104070  
     117A      1.115762   118A      1.134523   119A      1.143820  
     120A      1.175536   121A      1.189012   122A      1.236381  
     123A      1.263250   124A      1.290522   125A      1.314344  
     126A      1.353532   127A      1.386547   128A      1.397038  
     129A      1.408468   130A      1.434292   131A      1.436487  
     132A      1.453019   133A      1.493485   134A      1.502322  
     135A      1.514462   136A      1.569614   137A      1.603002  
     138A      1.614265   139A      1.648412   140A      1.690929  
     141A      1.716369   142A      1.747056   143A      1.766431  
     144A      1.806644   145A      1.881144   146A      1.902276  
     147A      1.921187   148A      1.955412   149A      1.970031  
     150A      1.989432   151A      2.027453   152A      2.054004  
     153A      2.080564   154A      2.093527   155A      2.133692  
     156A      2.164277   157A      2.197732   158A      2.216612  
     159A      2.253938   160A      2.264410   161A      2.287896  
     162A      2.304823   163A      2.324675   164A      2.332282  
     165A      2.372119   166A      2.412704   167A      2.426664  
     168A      2.441513   169A      2.490280   170A      2.507440  
     171A      2.597020   172A      2.633912   173A      2.752188  
     174A      2.820195   175A      2.841897   176A      2.872312  
     177A      2.878696   178A      2.930465   179A      3.051363  
     180A      3.153307   181A      3.202180   182A      3.365115  
     183A      4.163214   184A      4.251623   185A      4.288825  
     186A      4.392241   187A      4.441335   188A      4.477822  
     189A      4.498432   190A      4.646923   191A      4.719891  

    Final Occupation by Irrep:
              A 
    DOCC [    35 ]

  Energy converged.

  @DF-RKS Final Energy:  -456.20876099832537

   => Energetics <=

    Nuclear Repulsion Energy =            488.3728257882047501
    One-Electron Energy =               -1588.2092744778874476
    Two-Electron Energy =                 673.3322921899564335
    DFT Exchange-Correlation Energy =     -29.7046044985991990
    Empirical Dispersion Energy =           0.0000000000000000
    VV10 Nonlocal Energy =                  0.0000000000000000
    Total Energy =                       -456.2087609983253742



Properties will be evaluated at   0.000000,   0.000000,   0.000000 [a0]

Properties computed using the SCF density matrix

  Nuclear Dipole Moment: [e a0]
     X:     1.1679      Y:     6.0897      Z:     5.3674

  Electronic Dipole Moment: [e a0]
     X:     0.9009      Y:    -4.4848      Z:    -3.9221

  Dipole Moment: [e a0]
     X:     2.0689      Y:     1.6049      Z:     1.4453     Total:     2.9908

  Dipole Moment: [D]
     X:     5.2585      Y:     4.0794      Z:     3.6735     Total:     7.6018


*** tstop() called on localhost.localdomain at Tue Feb 12 13:58:57 2019
Module time:
	user time   =     336.40 seconds =       5.61 minutes
	system time =       5.41 seconds =       0.09 minutes
	total time  =         17 seconds =       0.28 minutes
Total time:
	user time   =     754.49 seconds =      12.57 minutes
	system time =      15.40 seconds =       0.26 minutes
	total time  =         38 seconds =       0.63 minutes

*** tstart() called on localhost.localdomain
*** at Tue Feb 12 13:58:57 2019


         ------------------------------------------------------------
                                   SCF GRAD                          
                          Rob Parrish, Justin Turney,                
                       Andy Simmonett, and Alex Sokolov              
         ------------------------------------------------------------

  ==> Geometry <==

    Molecular point group: c1
    Full point group: C1

    Geometry (in Angstrom), charge = 0, multiplicity = 1:

       Center              X                  Y                   Z               Mass       
    ------------   -----------------  -----------------  -----------------  -----------------
         N           -0.974185234667     0.200466562642     0.584611827503    14.003074004780
         N            1.415696027894    -0.122112537581     0.111287099012    14.003074004780
         O            0.653162253795    -0.733104192243    -0.821206895219    15.994914619560
         C           -0.849653179323    -0.610989747399    -0.413075666653    12.000000000000
         O           -1.538011470622    -1.295600929840    -1.137088670958    15.994914619560
         C            0.671750089499     2.080943148749    -0.701460951823    12.000000000000
         C            1.924125049175    -1.028473382994     1.130721606083    12.000000000000
         H            1.065944655314    -1.441007582583     1.669965042256     1.007825032070
         H            2.474936647456    -1.823460497174     0.628646523737     1.007825032070
         H            2.581963996384    -0.480910098775     1.806671748796     1.007825032070
         C           -2.340912883461     0.496061035435     0.967507727649    12.000000000000
         H           -2.959812076950    -0.411161144655     0.974265710184     1.007825032070
         H           -2.351739363449     0.937916958061     1.967588080883     1.007825032070
         H           -2.809486198553     1.207284820805     0.271800037130     1.007825032070
         C            1.153778585876     1.128651033186     0.332603008350    12.000000000000
         H            0.268067133704     1.558622795879    -1.567421725015     1.007825032070
         H           -0.096666214075     2.723749346508    -0.267769382045     1.007825032070
         H            1.517032525540     2.711633573790    -1.006989088991     1.007825032070
         H            1.561491468765     1.523880834247     1.260843673951     1.007825032070

  Nuclear repulsion =  488.372825788204750

  ==> Basis Set <==

  Basis Set: 6-31+G(D)
    Blend: 6-31+G(D)
    Number of shells: 92
    Number of basis function: 191
    Number of Cartesian functions: 191
    Spherical Harmonics?: false
    Max angular momentum: 2

  ==> DFJKGrad: Density-Fitted SCF Gradients <==

    Gradient:                    1
    J tasked:                  Yes
    K tasked:                  Yes
    wK tasked:                  No
    OpenMP threads:             24
    Integrals threads:          24
    Memory (MB):               375
    Schwarz Cutoff:          0E+00
    Fitting Condition:       1E-12

   => Auxiliary Basis Set <=

  Basis Set: (6-31+G(D) AUX)
    Blend: HEAVY-AUG-CC-PVDZ-JKFIT
    Number of shells: 342
    Number of basis function: 1159
    Number of Cartesian functions: 1159
    Spherical Harmonics?: false
    Max angular momentum: 3

  ==> DFT Potential <==

   => Composite Functional: M06-2X <= 

    Hybrid M06-2X Meta-GGA XC Functional

    Y. Zhao and D. G. Truhlar,  Theor. Chem. Acc., 120, 215, 2008


    Deriv               =              1
    GGA                 =           TRUE
    Meta                =           TRUE

    Exchange Hybrid     =           TRUE
    MP2 Hybrid          =          FALSE

   => Exchange Functionals <=

    1.0000   XC_HYB_MGGA_X_M06_2X

   => Exact (HF) Exchange <=

    0.5400               HF 

   => Correlation Functionals <=

    1.0000   XC_MGGA_C_M06_2X

   => Molecular Quadrature <=

    Radial Scheme       =       TREUTLER
    Pruning Scheme      =           FLAT
    Nuclear Scheme      =       TREUTLER

    BS radius alpha     =              1
    Pruning alpha       =              1
    Radial Points       =             75
    Spherical Points    =            302
    Total Points        =         430350
    Total Blocks        =           3150
    Max Points          =            256
    Max Functions       =            188


  -Total Gradient:
     Atom            X                  Y                   Z
    ------   -----------------  -----------------  -----------------
       1       -0.000616226063     0.000110846939     0.000158222855
       2       -0.000027843123    -0.000060361214    -0.000098029185
       3        0.000332226415     0.000020633063    -0.000085317503
       4       -0.000272598377    -0.000070211783     0.000010935137
       5        0.000068633037     0.000090848825     0.000078628356
       6        0.000009991455     0.000007053619     0.000018525584
       7       -0.000002275460    -0.000009484067     0.000000200959
       8       -0.000018391232    -0.000011257551    -0.000004401516
       9       -0.000017927393    -0.000019180565    -0.000016288749
      10        0.000001750350    -0.000019549146    -0.000005209934
      11        0.000510260691    -0.000053041623    -0.000068878575
      12       -0.000081515687    -0.000198460680    -0.000008179238
      13        0.000056982997     0.000132530336     0.000196744566
      14       -0.000068055936     0.000172351133    -0.000192930465
      15       -0.000014567764    -0.000042980780    -0.000010425002
      16       -0.000005303656     0.000005858368    -0.000003455288
      17        0.000005828383     0.000018819418     0.000014101644
      18        0.000013360989     0.000007706050    -0.000011972444
      19        0.000011887506    -0.000004936937    -0.000000598706


*** tstop() called on localhost.localdomain at Tue Feb 12 13:59:01 2019
Module time:
	user time   =      76.49 seconds =       1.27 minutes
	system time =       2.97 seconds =       0.05 minutes
	total time  =          4 seconds =       0.07 minutes
Total time:
	user time   =     831.05 seconds =      13.85 minutes
	system time =      18.37 seconds =       0.31 minutes
	total time  =         42 seconds =       0.70 minutes

  //>>>>>>>>>>>>>>>>>>>>>>>>>>>>>>>>>>>//
  //   Loading displacement 2 of 103   //
  //<<<<<<<<<<<<<<<<<<<<<<<<<<<<<<<<<<<//
gradient() will perform analytic gradient computation.

*** tstart() called on localhost.localdomain
*** at Tue Feb 12 13:59:01 2019

   => Loading Basis Set <=

    Name: 6-31+G(D)
    Role: ORBITAL
    Keyword: BASIS
    atoms 1-2                entry N          line   138 file /root/psi4conda/share/psi4/basis/6-31pg_d_.gbs 
    atoms 3, 5               entry O          line   157 file /root/psi4conda/share/psi4/basis/6-31pg_d_.gbs 
    atoms 4, 6-7, 11, 15     entry C          line   119 file /root/psi4conda/share/psi4/basis/6-31pg_d_.gbs 
    atoms 8-10, 12-14, 16-19 entry H          line    46 file /root/psi4conda/share/psi4/basis/6-31pg_d_.gbs 


         ---------------------------------------------------------
                                   SCF
            by Justin Turney, Rob Parrish, Andy Simmonett
                             and Daniel Smith
                              RKS Reference
                       24 Threads,    500 MiB Core
         ---------------------------------------------------------

  ==> Geometry <==

    Molecular point group: c1
    Full point group: C1

    Geometry (in Angstrom), charge = 0, multiplicity = 1:

       Center              X                  Y                   Z               Mass       
    ------------   -----------------  -----------------  -----------------  -----------------
         N           -0.972860351135     0.200458461716     0.584577947315    14.003074004780
         N            1.415530826618    -0.122099269849     0.111336102490    14.003074004780
         O            0.653034860219    -0.733099421689    -0.821183239755    15.994914619560
         C           -0.849795775142    -0.610998247356    -0.413104021911    12.000000000000
         O           -1.538122766792    -1.295616918132    -1.137139702604    15.994914619560
         C            0.671592534839     2.080948276459    -0.701441011603    12.000000000000
         C            1.923933078959    -1.028453834119     1.130789544109    12.000000000000
         H            1.065737907182    -1.440995137923     1.670004026006     1.007825032070
         H            2.474769344084    -1.823436629898     0.628734686285     1.007825032070
         H            2.581743651674    -0.480883418271     1.806761522992     1.007825032070
         C           -2.341113325865     0.496040876865     0.967426234887    12.000000000000
         H           -2.960004359562    -0.411187018005     0.974164280350     1.007825032070
         H           -2.351978379011     0.937898247121     1.967505530205     1.007825032070
         H           -2.809669229935     1.207259250821     0.271701286040     1.007825032070
         C            1.153594182721     1.128662220458     0.332641043844    12.000000000000
         H            0.267944271984     1.558622849016    -1.567414895891     1.007825032070
         H           -0.096844669601     2.723748036982    -0.267776934373     1.007825032070
         H            1.516879671522     2.711646048104    -1.006940977099     1.007825032070
         H            1.561271400751     1.523897229767     1.260895156203     1.007825032070

  Running in c1 symmetry.

  Rotational constants: A =      0.07115  B =      0.04718  C =      0.04000 [cm^-1]
  Rotational constants: A =   2132.92506  B =   1414.42161  C =   1199.29808 [MHz]
  Nuclear repulsion =  488.380187614441070

  Charge       = 0
  Multiplicity = 1
  Electrons    = 70
  Nalpha       = 35
  Nbeta        = 35

  ==> Algorithm <==

  SCF Algorithm Type is DF.
  DIIS enabled.
  MOM disabled.
  Fractional occupation disabled.
  Guess Type is SAD.
  Energy threshold   = 1.00e-08
  Density threshold  = 1.00e-08
  Integral threshold = 0.00e+00

  ==> Primary Basis <==

  Basis Set: 6-31+G(D)
    Blend: 6-31+G(D)
    Number of shells: 92
    Number of basis function: 191
    Number of Cartesian functions: 191
    Spherical Harmonics?: false
    Max angular momentum: 2

  ==> DFT Potential <==

   => Composite Functional: M06-2X <= 

    Hybrid M06-2X Meta-GGA XC Functional

    Y. Zhao and D. G. Truhlar,  Theor. Chem. Acc., 120, 215, 2008


    Deriv               =              1
    GGA                 =           TRUE
    Meta                =           TRUE

    Exchange Hybrid     =           TRUE
    MP2 Hybrid          =          FALSE

   => Exchange Functionals <=

    1.0000   XC_HYB_MGGA_X_M06_2X

   => Exact (HF) Exchange <=

    0.5400               HF 

   => Correlation Functionals <=

    1.0000   XC_MGGA_C_M06_2X

   => Molecular Quadrature <=

    Radial Scheme       =       TREUTLER
    Pruning Scheme      =           FLAT
    Nuclear Scheme      =       TREUTLER

    BS radius alpha     =              1
    Pruning alpha       =              1
    Radial Points       =             75
    Spherical Points    =            302
    Total Points        =         430350
    Total Blocks        =           3152
    Max Points          =            256
    Max Functions       =            188

   => Loading Basis Set <=

    Name: (6-31+G(D) AUX)
    Role: JKFIT
    Keyword: DF_BASIS_SCF
    atoms 1-2                entry N          line   252 file /root/psi4conda/share/psi4/basis/heavy-aug-cc-pvdz-jkfit.gbs 
    atoms 3, 5               entry O          line   310 file /root/psi4conda/share/psi4/basis/heavy-aug-cc-pvdz-jkfit.gbs 
    atoms 4, 6-7, 11, 15     entry C          line   194 file /root/psi4conda/share/psi4/basis/heavy-aug-cc-pvdz-jkfit.gbs 
    atoms 8-10, 12-14, 16-19 entry H          line   116 file /root/psi4conda/share/psi4/basis/heavy-aug-cc-pvdz-jkfit.gbs 

  ==> Pre-Iterations <==

   -------------------------------------------------------
    Irrep   Nso     Nmo     Nalpha   Nbeta   Ndocc  Nsocc
   -------------------------------------------------------
     A        191     191       0       0       0       0
   -------------------------------------------------------
    Total     191     191      35      35      35       0
   -------------------------------------------------------

  ==> Integral Setup <==

  ==> DiskDFJK: Density-Fitted J/K Matrices <==

    J tasked:                  Yes
    K tasked:                  Yes
    wK tasked:                  No
    OpenMP threads:             24
    Integrals threads:          24
    Memory (MB):               375
    Algorithm:                Core
    Integral Cache:           NONE
    Schwarz Cutoff:          1E-12
    Fitting Condition:       1E-12

   => Auxiliary Basis Set <=

  Basis Set: (6-31+G(D) AUX)
    Blend: HEAVY-AUG-CC-PVDZ-JKFIT
    Number of shells: 342
    Number of basis function: 1159
    Number of Cartesian functions: 1159
    Spherical Harmonics?: false
    Max angular momentum: 3

  Minimum eigenvalue in the overlap matrix is 5.5140114417E-05.
  Using Symmetric Orthogonalization.

  SCF Guess: Superposition of Atomic Densities via on-the-fly atomic UHF.

  ==> Iterations <==

                           Total Energy        Delta E     RMS |[F,P]|

   @DF-RKS iter   0:  -458.58265920366006   -4.58583e+02   9.79074e-02 
   @DF-RKS iter   1:  -456.00634421149158    2.57631e+00   1.42380e-02 
   @DF-RKS iter   2:  -455.88875662761109    1.17588e-01   1.96168e-02 DIIS
   @DF-RKS iter   3:  -456.20216114839479   -3.13405e-01   2.46159e-03 DIIS
   @DF-RKS iter   4:  -456.20687535805666   -4.71421e-03   1.17895e-03 DIIS
   @DF-RKS iter   5:  -456.20855236898609   -1.67701e-03   3.66620e-04 DIIS
   @DF-RKS iter   6:  -456.20873324600768   -1.80877e-04   1.46819e-04 DIIS
   @DF-RKS iter   7:  -456.20875689869558   -2.36527e-05   5.42828e-05 DIIS
   @DF-RKS iter   8:  -456.20876034799494   -3.44930e-06   1.58639e-05 DIIS
   @DF-RKS iter   9:  -456.20876084845924   -5.00464e-07   4.35933e-06 DIIS
   @DF-RKS iter  10:  -456.20876088182109   -3.33619e-08   2.16074e-06 DIIS
   @DF-RKS iter  11:  -456.20876088925451   -7.43341e-09   5.70249e-07 DIIS
   @DF-RKS iter  12:  -456.20876088999137   -7.36861e-10   2.04876e-07 DIIS
   @DF-RKS iter  13:  -456.20876089010790   -1.16529e-10   8.37383e-08 DIIS
   @DF-RKS iter  14:  -456.20876089012313   -1.52340e-11   3.04256e-08 DIIS
   @DF-RKS iter  15:  -456.20876089012546   -2.33058e-12   1.05981e-08 DIIS
   @DF-RKS iter  16:  -456.20876089012518    2.84217e-13   7.46526e-09 DIIS

  ==> Post-Iterations <==

    Orbital Energies [Eh]
    ---------------------

    Doubly Occupied:                                                      

       1A    -19.698089     2A    -19.594122     3A    -14.904933  
       4A    -14.723307     5A    -10.675943     6A    -10.657226  
       7A    -10.615212     8A    -10.580834     9A    -10.552601  
      10A     -1.267741    11A     -1.138991    12A     -1.027856  
      13A     -0.984673    14A     -0.909693    15A     -0.824557  
      16A     -0.776148    17A     -0.717310    18A     -0.641326  
      19A     -0.626644    20A     -0.599537    21A     -0.557576  
      22A     -0.533482    23A     -0.527014    24A     -0.505892  
      25A     -0.498697    26A     -0.496300    27A     -0.491227  
      28A     -0.477058    29A     -0.451779    30A     -0.444126  
      31A     -0.403662    32A     -0.375484    33A     -0.359350  
      34A     -0.294355    35A     -0.273131  

    Virtual:                                                              

      36A     -0.030737    37A     -0.004438    38A      0.018742  
      39A      0.025377    40A      0.031052    41A      0.047075  
      42A      0.054747    43A      0.059669    44A      0.060885  
      45A      0.068509    46A      0.078764    47A      0.085875  
      48A      0.096393    49A      0.101855    50A      0.108213  
      51A      0.116063    52A      0.121241    53A      0.129778  
      54A      0.137307    55A      0.142455    56A      0.153745  
      57A      0.166130    58A      0.173466    59A      0.191742  
      60A      0.201732    61A      0.209082    62A      0.220682  
      63A      0.227560    64A      0.229012    65A      0.241464  
      66A      0.242748    67A      0.254820    68A      0.266345  
      69A      0.274215    70A      0.276978    71A      0.282750  
      72A      0.291327    73A      0.305237    74A      0.315202  
      75A      0.326572    76A      0.334350    77A      0.347873  
      78A      0.353663    79A      0.360816    80A      0.362441  
      81A      0.370593    82A      0.379875    83A      0.390497  
      84A      0.398881    85A      0.411609    86A      0.442539  
      87A      0.452779    88A      0.483733    89A      0.486192  
      90A      0.515624    91A      0.650859    92A      0.667716  
      93A      0.682255    94A      0.721890    95A      0.731256  
      96A      0.752626    97A      0.765847    98A      0.771829  
      99A      0.790464   100A      0.803750   101A      0.822495  
     102A      0.835319   103A      0.844396   104A      0.894404  
     105A      0.924956   106A      0.956229   107A      0.966707  
     108A      0.984152   109A      0.992958   110A      1.000730  
     111A      1.022081   112A      1.038685   113A      1.051273  
     114A      1.072644   115A      1.087923   116A      1.104055  
     117A      1.115781   118A      1.134533   119A      1.143870  
     120A      1.175540   121A      1.188966   122A      1.236428  
     123A      1.263252   124A      1.290574   125A      1.314327  
     126A      1.353553   127A      1.386643   128A      1.397047  
     129A      1.408475   130A      1.434229   131A      1.436558  
     132A      1.453087   133A      1.493635   134A      1.502363  
     135A      1.514509   136A      1.569665   137A      1.603029  
     138A      1.614310   139A      1.648298   140A      1.690979  
     141A      1.716251   142A      1.747423   143A      1.766502  
     144A      1.806751   145A      1.881231   146A      1.902334  
     147A      1.921214   148A      1.955578   149A      1.970125  
     150A      1.989466   151A      2.027481   152A      2.053934  
     153A      2.080290   154A      2.093616   155A      2.132528  
     156A      2.163880   157A      2.197957   158A      2.216505  
     159A      2.253721   160A      2.264501   161A      2.287950  
     162A      2.304766   163A      2.324356   164A      2.332408  
     165A      2.371979   166A      2.412723   167A      2.426442  
     168A      2.441263   169A      2.490336   170A      2.507177  
     171A      2.597306   172A      2.633999   173A      2.752338  
     174A      2.819965   175A      2.842032   176A      2.872285  
     177A      2.878835   178A      2.930588   179A      3.051537  
     180A      3.153067   181A      3.202183   182A      3.365142  
     183A      4.163349   184A      4.251390   185A      4.288807  
     186A      4.392345   187A      4.441367   188A      4.477966  
     189A      4.498616   190A      4.647059   191A      4.720230  

    Final Occupation by Irrep:
              A 
    DOCC [    35 ]

  Energy converged.

  @DF-RKS Final Energy:  -456.20876089012518

   => Energetics <=

    Nuclear Repulsion Energy =            488.3801876144410699
    One-Electron Energy =               -1588.2259881501568088
    Two-Electron Energy =                 673.3414970373459028
    DFT Exchange-Correlation Energy =     -29.7044573917554295
    Empirical Dispersion Energy =           0.0000000000000000
    VV10 Nonlocal Energy =                  0.0000000000000000
    Total Energy =                       -456.2087608901251770



Properties will be evaluated at   0.000000,   0.000000,   0.000000 [a0]

Properties computed using the SCF density matrix

  Nuclear Dipole Moment: [e a0]
     X:     1.1662      Y:     6.0897      Z:     5.3674

  Electronic Dipole Moment: [e a0]
     X:     0.8994      Y:    -4.4845      Z:    -3.9217

  Dipole Moment: [e a0]
     X:     2.0656      Y:     1.6052      Z:     1.4457     Total:     2.9889

  Dipole Moment: [D]
     X:     5.2501      Y:     4.0800      Z:     3.6747     Total:     7.5969


*** tstop() called on localhost.localdomain at Tue Feb 12 13:59:17 2019
Module time:
	user time   =     339.61 seconds =       5.66 minutes
	system time =       4.84 seconds =       0.08 minutes
	total time  =         16 seconds =       0.27 minutes
Total time:
	user time   =    1170.96 seconds =      19.52 minutes
	system time =      23.21 seconds =       0.39 minutes
	total time  =         58 seconds =       0.97 minutes

*** tstart() called on localhost.localdomain
*** at Tue Feb 12 13:59:17 2019


         ------------------------------------------------------------
                                   SCF GRAD                          
                          Rob Parrish, Justin Turney,                
                       Andy Simmonett, and Alex Sokolov              
         ------------------------------------------------------------

  ==> Geometry <==

    Molecular point group: c1
    Full point group: C1

    Geometry (in Angstrom), charge = 0, multiplicity = 1:

       Center              X                  Y                   Z               Mass       
    ------------   -----------------  -----------------  -----------------  -----------------
         N           -0.972860351135     0.200458461716     0.584577947315    14.003074004780
         N            1.415530826618    -0.122099269849     0.111336102490    14.003074004780
         O            0.653034860219    -0.733099421689    -0.821183239755    15.994914619560
         C           -0.849795775142    -0.610998247356    -0.413104021911    12.000000000000
         O           -1.538122766792    -1.295616918132    -1.137139702604    15.994914619560
         C            0.671592534839     2.080948276459    -0.701441011603    12.000000000000
         C            1.923933078959    -1.028453834119     1.130789544109    12.000000000000
         H            1.065737907182    -1.440995137923     1.670004026006     1.007825032070
         H            2.474769344084    -1.823436629898     0.628734686285     1.007825032070
         H            2.581743651674    -0.480883418271     1.806761522992     1.007825032070
         C           -2.341113325865     0.496040876865     0.967426234887    12.000000000000
         H           -2.960004359562    -0.411187018005     0.974164280350     1.007825032070
         H           -2.351978379011     0.937898247121     1.967505530205     1.007825032070
         H           -2.809669229935     1.207259250821     0.271701286040     1.007825032070
         C            1.153594182721     1.128662220458     0.332641043844    12.000000000000
         H            0.267944271984     1.558622849016    -1.567414895891     1.007825032070
         H           -0.096844669601     2.723748036982    -0.267776934373     1.007825032070
         H            1.516879671522     2.711646048104    -1.006940977099     1.007825032070
         H            1.561271400751     1.523897229767     1.260895156203     1.007825032070

  Nuclear repulsion =  488.380187614441070

  ==> Basis Set <==

  Basis Set: 6-31+G(D)
    Blend: 6-31+G(D)
    Number of shells: 92
    Number of basis function: 191
    Number of Cartesian functions: 191
    Spherical Harmonics?: false
    Max angular momentum: 2

  ==> DFJKGrad: Density-Fitted SCF Gradients <==

    Gradient:                    1
    J tasked:                  Yes
    K tasked:                  Yes
    wK tasked:                  No
    OpenMP threads:             24
    Integrals threads:          24
    Memory (MB):               375
    Schwarz Cutoff:          0E+00
    Fitting Condition:       1E-12

   => Auxiliary Basis Set <=

  Basis Set: (6-31+G(D) AUX)
    Blend: HEAVY-AUG-CC-PVDZ-JKFIT
    Number of shells: 342
    Number of basis function: 1159
    Number of Cartesian functions: 1159
    Spherical Harmonics?: false
    Max angular momentum: 3

  ==> DFT Potential <==

   => Composite Functional: M06-2X <= 

    Hybrid M06-2X Meta-GGA XC Functional

    Y. Zhao and D. G. Truhlar,  Theor. Chem. Acc., 120, 215, 2008


    Deriv               =              1
    GGA                 =           TRUE
    Meta                =           TRUE

    Exchange Hybrid     =           TRUE
    MP2 Hybrid          =          FALSE

   => Exchange Functionals <=

    1.0000   XC_HYB_MGGA_X_M06_2X

   => Exact (HF) Exchange <=

    0.5400               HF 

   => Correlation Functionals <=

    1.0000   XC_MGGA_C_M06_2X

   => Molecular Quadrature <=

    Radial Scheme       =       TREUTLER
    Pruning Scheme      =           FLAT
    Nuclear Scheme      =       TREUTLER

    BS radius alpha     =              1
    Pruning alpha       =              1
    Radial Points       =             75
    Spherical Points    =            302
    Total Points        =         430350
    Total Blocks        =           3152
    Max Points          =            256
    Max Functions       =            188


  -Total Gradient:
     Atom            X                  Y                   Z
    ------   -----------------  -----------------  -----------------
       1        0.000694329227    -0.000141616967    -0.000221496019
       2       -0.000144610631    -0.000009897475    -0.000032594654
       3        0.000216812122     0.000070138947     0.000003127402
       4       -0.000583055819     0.000053092211     0.000169004996
       5        0.000105551083     0.000018149457    -0.000003848093
       6       -0.000010931807    -0.000006537692     0.000025117094
       7        0.000006125329    -0.000018401134     0.000007136316
       8       -0.000019670768    -0.000011289292    -0.000006636464
       9       -0.000018695988    -0.000019794075    -0.000017319009
      10        0.000000816169    -0.000018985030    -0.000006386102
      11       -0.000118465709     0.000000378694     0.000018587935
      12       -0.000175134775    -0.000190982645     0.000013578573
      13        0.000029965851     0.000142395724     0.000211455052
      14       -0.000144289826     0.000199123608    -0.000181166055
      15        0.000022416590    -0.000015720212    -0.000003463191
      16       -0.000007877249     0.000007585200    -0.000004584671
      17        0.000005184960     0.000018666106     0.000012714737
      18        0.000015709035     0.000005650247    -0.000009391599
      19        0.000014442055    -0.000005298718    -0.000001645383


*** tstop() called on localhost.localdomain at Tue Feb 12 13:59:22 2019
Module time:
	user time   =      84.33 seconds =       1.41 minutes
	system time =       2.78 seconds =       0.05 minutes
	total time  =          5 seconds =       0.08 minutes
Total time:
	user time   =    1255.36 seconds =      20.92 minutes
	system time =      26.00 seconds =       0.43 minutes
	total time  =         63 seconds =       1.05 minutes

  //>>>>>>>>>>>>>>>>>>>>>>>>>>>>>>>>>>>//
  //   Loading displacement 3 of 103   //
  //<<<<<<<<<<<<<<<<<<<<<<<<<<<<<<<<<<<//
gradient() will perform analytic gradient computation.

*** tstart() called on localhost.localdomain
*** at Tue Feb 12 13:59:22 2019

   => Loading Basis Set <=

    Name: 6-31+G(D)
    Role: ORBITAL
    Keyword: BASIS
    atoms 1-2                entry N          line   138 file /root/psi4conda/share/psi4/basis/6-31pg_d_.gbs 
    atoms 3, 5               entry O          line   157 file /root/psi4conda/share/psi4/basis/6-31pg_d_.gbs 
    atoms 4, 6-7, 11, 15     entry C          line   119 file /root/psi4conda/share/psi4/basis/6-31pg_d_.gbs 
    atoms 8-10, 12-14, 16-19 entry H          line    46 file /root/psi4conda/share/psi4/basis/6-31pg_d_.gbs 


         ---------------------------------------------------------
                                   SCF
            by Justin Turney, Rob Parrish, Andy Simmonett
                             and Daniel Smith
                              RKS Reference
                       24 Threads,    500 MiB Core
         ---------------------------------------------------------

  ==> Geometry <==

    Molecular point group: c1
    Full point group: C1

    Geometry (in Angstrom), charge = 0, multiplicity = 1:

       Center              X                  Y                   Z               Mass       
    ------------   -----------------  -----------------  -----------------  -----------------
         N           -0.973522792901     0.199815252085     0.584587508843    14.003074004780
         N            1.415610531524    -0.122056777152     0.111317568502    14.003074004780
         O            0.653081295148    -0.733058880074    -0.821173290348    15.994914619560
         C           -0.849739265156    -0.610900155468    -0.413074191141    12.000000000000
         O           -1.538098578360    -1.295517368055    -1.137080521985    15.994914619560
         C            0.671727693557     2.080991518031    -0.701508273985    12.000000000000
         C            1.924000554177    -1.028399169412     1.130787931070    12.000000000000
         H            1.065800978101    -1.440899239359     1.670026949497     1.007825032070
         H            2.474804519842    -1.823412694369     0.628746294480     1.007825032070
         H            2.581838474974    -0.480830583481     1.806734777967     1.007825032070
         C           -2.341001309577     0.496222745889     0.967448844557    12.000000000000
         H           -2.959920246354    -0.410985858336     0.974221252146     1.007825032070
         H           -2.351837270283     0.938107789161     1.967516228850     1.007825032070
         H           -2.809546006367     1.207436566999     0.271711693302     1.007825032070
         C            1.153715919809     1.128718848963     0.332592365892    12.000000000000
         H            0.268049926252     1.558654880235    -1.567461643231     1.007825032070
         H           -0.096682966111     2.723826856013    -0.267849895878     1.007825032070
         H            1.517029580340     2.711654842987    -1.007038540178     1.007825032070
         H            1.561419681078     1.523966646720     1.260829375099     1.007825032070

  Running in c1 symmetry.

  Rotational constants: A =      0.07115  B =      0.04718  C =      0.04000 [cm^-1]
  Rotational constants: A =   2132.96674  B =   1414.32759  C =   1199.25933 [MHz]
  Nuclear repulsion =  488.383160458726309

  Charge       = 0
  Multiplicity = 1
  Electrons    = 70
  Nalpha       = 35
  Nbeta        = 35

  ==> Algorithm <==

  SCF Algorithm Type is DF.
  DIIS enabled.
  MOM disabled.
  Fractional occupation disabled.
  Guess Type is SAD.
  Energy threshold   = 1.00e-08
  Density threshold  = 1.00e-08
  Integral threshold = 0.00e+00

  ==> Primary Basis <==

  Basis Set: 6-31+G(D)
    Blend: 6-31+G(D)
    Number of shells: 92
    Number of basis function: 191
    Number of Cartesian functions: 191
    Spherical Harmonics?: false
    Max angular momentum: 2

  ==> DFT Potential <==

   => Composite Functional: M06-2X <= 

    Hybrid M06-2X Meta-GGA XC Functional

    Y. Zhao and D. G. Truhlar,  Theor. Chem. Acc., 120, 215, 2008


    Deriv               =              1
    GGA                 =           TRUE
    Meta                =           TRUE

    Exchange Hybrid     =           TRUE
    MP2 Hybrid          =          FALSE

   => Exchange Functionals <=

    1.0000   XC_HYB_MGGA_X_M06_2X

   => Exact (HF) Exchange <=

    0.5400               HF 

   => Correlation Functionals <=

    1.0000   XC_MGGA_C_M06_2X

   => Molecular Quadrature <=

    Radial Scheme       =       TREUTLER
    Pruning Scheme      =           FLAT
    Nuclear Scheme      =       TREUTLER

    BS radius alpha     =              1
    Pruning alpha       =              1
    Radial Points       =             75
    Spherical Points    =            302
    Total Points        =         430350
    Total Blocks        =           3148
    Max Points          =            256
    Max Functions       =            188

   => Loading Basis Set <=

    Name: (6-31+G(D) AUX)
    Role: JKFIT
    Keyword: DF_BASIS_SCF
    atoms 1-2                entry N          line   252 file /root/psi4conda/share/psi4/basis/heavy-aug-cc-pvdz-jkfit.gbs 
    atoms 3, 5               entry O          line   310 file /root/psi4conda/share/psi4/basis/heavy-aug-cc-pvdz-jkfit.gbs 
    atoms 4, 6-7, 11, 15     entry C          line   194 file /root/psi4conda/share/psi4/basis/heavy-aug-cc-pvdz-jkfit.gbs 
    atoms 8-10, 12-14, 16-19 entry H          line   116 file /root/psi4conda/share/psi4/basis/heavy-aug-cc-pvdz-jkfit.gbs 

  ==> Pre-Iterations <==

   -------------------------------------------------------
    Irrep   Nso     Nmo     Nalpha   Nbeta   Ndocc  Nsocc
   -------------------------------------------------------
     A        191     191       0       0       0       0
   -------------------------------------------------------
    Total     191     191      35      35      35       0
   -------------------------------------------------------

  ==> Integral Setup <==

  ==> DiskDFJK: Density-Fitted J/K Matrices <==

    J tasked:                  Yes
    K tasked:                  Yes
    wK tasked:                  No
    OpenMP threads:             24
    Integrals threads:          24
    Memory (MB):               375
    Algorithm:                Core
    Integral Cache:           NONE
    Schwarz Cutoff:          1E-12
    Fitting Condition:       1E-12

   => Auxiliary Basis Set <=

  Basis Set: (6-31+G(D) AUX)
    Blend: HEAVY-AUG-CC-PVDZ-JKFIT
    Number of shells: 342
    Number of basis function: 1159
    Number of Cartesian functions: 1159
    Spherical Harmonics?: false
    Max angular momentum: 3

  Minimum eigenvalue in the overlap matrix is 5.5172094378E-05.
  Using Symmetric Orthogonalization.

  SCF Guess: Superposition of Atomic Densities via on-the-fly atomic UHF.

  ==> Iterations <==

                           Total Energy        Delta E     RMS |[F,P]|

   @DF-RKS iter   0:  -458.60735508287547   -4.58607e+02   9.19266e-02 
   @DF-RKS iter   1:  -456.00218989284235    2.60517e+00   1.42940e-02 
   @DF-RKS iter   2:  -455.89186332861135    1.10327e-01   1.96015e-02 DIIS
   @DF-RKS iter   3:  -456.20246522027401   -3.10602e-01   2.37529e-03 DIIS
   @DF-RKS iter   4:  -456.20692614385985   -4.46092e-03   1.46759e-03 DIIS
   @DF-RKS iter   5:  -456.20853729652265   -1.61115e-03   4.41514e-04 DIIS
   @DF-RKS iter   6:  -456.20873256013726   -1.95264e-04   1.27437e-04 DIIS
   @DF-RKS iter   7:  -456.20875625832093   -2.36982e-05   4.68216e-05 DIIS
   @DF-RKS iter   8:  -456.20876009315771   -3.83484e-06   1.52807e-05 DIIS
   @DF-RKS iter   9:  -456.20876080968389   -7.16526e-07   5.24094e-06 DIIS
   @DF-RKS iter  10:  -456.20876087659065   -6.69068e-08   3.78915e-06 DIIS
   @DF-RKS iter  11:  -456.20876089183321   -1.52426e-08   7.17135e-07 DIIS
   @DF-RKS iter  12:  -456.20876089364805   -1.81484e-09   3.94913e-07 DIIS
   @DF-RKS iter  13:  -456.20876089395745   -3.09399e-10   1.22006e-07 DIIS
   @DF-RKS iter  14:  -456.20876089399030   -3.28555e-11   4.29554e-08 DIIS
   @DF-RKS iter  15:  -456.20876089399457   -4.26326e-12   1.94846e-08 DIIS
   @DF-RKS iter  16:  -456.20876089399451    5.68434e-14   1.59170e-08 DIIS
   @DF-RKS iter  17:  -456.20876089399485   -3.41061e-13   4.00955e-09 DIIS

  ==> Post-Iterations <==

    Orbital Energies [Eh]
    ---------------------

    Doubly Occupied:                                                      

       1A    -19.698127     2A    -19.594013     3A    -14.904996  
       4A    -14.723220     5A    -10.675947     6A    -10.657147  
       7A    -10.615237     8A    -10.580864     9A    -10.552575  
      10A     -1.267768    11A     -1.138951    12A     -1.027879  
      13A     -0.984796    14A     -0.909727    15A     -0.824585  
      16A     -0.776225    17A     -0.717346    18A     -0.641351  
      19A     -0.626670    20A     -0.599559    21A     -0.557599  
      22A     -0.533503    23A     -0.527059    24A     -0.505907  
      25A     -0.498712    26A     -0.496306    27A     -0.491266  
      28A     -0.477074    29A     -0.451821    30A     -0.444211  
      31A     -0.403664    32A     -0.375474    33A     -0.359254  
      34A     -0.294294    35A     -0.273100  

    Virtual:                                                              

      36A     -0.030789    37A     -0.004451    38A      0.018730  
      39A      0.025366    40A      0.031048    41A      0.047067  
      42A      0.054742    43A      0.059667    44A      0.060883  
      45A      0.068510    46A      0.078755    47A      0.085874  
      48A      0.096385    49A      0.101856    50A      0.108228  
      51A      0.116067    52A      0.121253    53A      0.129767  
      54A      0.137354    55A      0.142457    56A      0.153750  
      57A      0.166117    58A      0.173456    59A      0.191727  
      60A      0.201720    61A      0.209063    62A      0.220652  
      63A      0.227574    64A      0.228992    65A      0.241468  
      66A      0.242732    67A      0.254808    68A      0.266336  
      69A      0.274233    70A      0.276990    71A      0.282781  
      72A      0.291331    73A      0.305224    74A      0.315198  
      75A      0.326610    76A      0.334342    77A      0.347916  
      78A      0.353709    79A      0.360852    80A      0.362494  
      81A      0.370630    82A      0.379877    83A      0.390528  
      84A      0.398880    85A      0.411661    86A      0.442595  
      87A      0.452753    88A      0.483732    89A      0.486211  
      90A      0.515894    91A      0.650769    92A      0.667712  
      93A      0.682257    94A      0.721877    95A      0.731245  
      96A      0.752812    97A      0.765838    98A      0.771789  
      99A      0.790471   100A      0.803751   101A      0.822517  
     102A      0.835417   103A      0.844271   104A      0.894358  
     105A      0.925051   106A      0.956235   107A      0.966695  
     108A      0.984146   109A      0.992916   110A      1.000701  
     111A      1.022083   112A      1.038637   113A      1.051275  
     114A      1.072564   115A      1.087897   116A      1.104084  
     117A      1.115780   118A      1.134535   119A      1.143864  
     120A      1.175515   121A      1.188979   122A      1.236414  
     123A      1.263202   124A      1.290571   125A      1.314338  
     126A      1.353549   127A      1.386643   128A      1.397169  
     129A      1.408513   130A      1.434257   131A      1.436544  
     132A      1.453084   133A      1.493616   134A      1.502273  
     135A      1.514561   136A      1.569650   137A      1.603057  
     138A      1.614327   139A      1.648270   140A      1.690956  
     141A      1.716379   142A      1.747301   143A      1.766505  
     144A      1.806681   145A      1.881202   146A      1.902352  
     147A      1.921241   148A      1.955532   149A      1.970117  
     150A      1.989494   151A      2.027466   152A      2.054017  
     153A      2.080448   154A      2.093545   155A      2.132980  
     156A      2.164038   157A      2.197876   158A      2.216631  
     159A      2.253845   160A      2.264447   161A      2.287932  
     162A      2.304817   163A      2.324686   164A      2.332330  
     165A      2.372068   166A      2.412720   167A      2.426630  
     168A      2.441255   169A      2.490316   170A      2.507489  
     171A      2.597125   172A      2.633953   173A      2.752306  
     174A      2.820429   175A      2.842155   176A      2.872403  
     177A      2.878953   178A      2.930641   179A      3.051512  
     180A      3.153601   181A      3.202369   182A      3.365366  
     183A      4.163311   184A      4.251540   185A      4.288782  
     186A      4.392321   187A      4.441409   188A      4.477961  
     189A      4.498447   190A      4.647157   191A      4.720234  

    Final Occupation by Irrep:
              A 
    DOCC [    35 ]

  Energy converged.

  @DF-RKS Final Energy:  -456.20876089399485

   => Energetics <=

    Nuclear Repulsion Energy =            488.3831604587263087
    One-Electron Energy =               -1588.2310669221390071
    Two-Electron Energy =                 673.3437842392132779
    DFT Exchange-Correlation Energy =     -29.7046386697953437
    Empirical Dispersion Energy =           0.0000000000000000
    VV10 Nonlocal Energy =                  0.0000000000000000
[...]
     12   H               -0.05  0.04  0.05    0.03 -0.03 -0.01    0.47 -0.35 -0.16   
     13   H               -0.04 -0.00 -0.01    0.05  0.01 -0.00    0.56  0.03  0.02   
     14   H               -0.03  0.02  0.05    0.05  0.01 -0.02    0.46  0.08 -0.26   
     15   C                0.04 -0.01  0.08   -0.01  0.02 -0.02    0.01  0.00  0.00   
     16   H                0.09 -0.23  0.07    0.01 -0.00 -0.00    0.06 -0.05 -0.00   
     17   H               -0.14 -0.31  0.34    0.06  0.10 -0.05    0.04  0.01  0.07   
     18   H                0.33 -0.34  0.06   -0.08  0.09  0.01    0.01 -0.00  0.01   
     19   H               -0.14  0.50 -0.06    0.02 -0.08  0.01   -0.01  0.03  0.00   

  Vibration                       40                  41                  42          
  Freq [cm^-1]                1489.1572           1497.8259           1500.1280       
  Irrep                           A                   A                   A           
  Reduced mass [u]              1.0786              1.0455              1.0434        
  Force const [mDyne/A]         1.4092              1.3820              1.3834        
  Turning point v=0 [a0]        0.2738              0.2773              0.2773        
  RMS dev v=0 [a0 u^1/2]        0.2011              0.2005              0.2003        
  Char temp [K]               2142.5624           2155.0347           2158.3469       
  ----------------------------------------------------------------------------------
      1   N                0.00 -0.01 -0.01    0.00 -0.00 -0.00   -0.00  0.00 -0.00   
      2   N                0.00  0.04  0.01   -0.01  0.00  0.02   -0.00  0.01  0.00   
      3   O               -0.01 -0.01 -0.01    0.00 -0.00 -0.00   -0.00 -0.00 -0.00   
      4   C               -0.01  0.00  0.00   -0.00 -0.00  0.00   -0.00 -0.00 -0.00   
      5   O                0.00  0.00  0.00    0.00  0.00  0.00    0.00  0.00  0.00   
      6   C                0.02  0.02  0.04    0.01 -0.00  0.01   -0.04 -0.00  0.03   
      7   C               -0.01 -0.02 -0.02   -0.05  0.02  0.01   -0.00 -0.00 -0.00   
      8   H                0.07  0.10  0.19   -0.21 -0.09 -0.36   -0.02  0.03 -0.00   
      9   H                0.09  0.05 -0.01    0.38  0.05  0.41    0.07  0.03  0.03   
     10   H               -0.07 -0.07  0.10    0.55 -0.25 -0.34    0.04 -0.04 -0.01   
     11   C               -0.01  0.00  0.01   -0.00  0.00  0.00    0.00  0.00 -0.01   
     12   H                0.03 -0.02 -0.06   -0.00  0.00 -0.02   -0.02  0.02  0.09   
     13   H                0.07  0.01  0.00    0.01  0.00  0.00   -0.06 -0.07  0.03   
     14   H                0.01 -0.02 -0.03   -0.01 -0.01 -0.01    0.02  0.00 -0.01   
     15   C                0.01 -0.02  0.00   -0.00  0.01 -0.01   -0.02 -0.00  0.01   
     16   H               -0.10  0.44 -0.17   -0.06  0.06  0.01    0.63  0.04 -0.32   
     17   H               -0.41 -0.40 -0.12   -0.06 -0.05 -0.05    0.23  0.07  0.38   
     18   H                0.19 -0.41 -0.33    0.02 -0.03 -0.01   -0.16 -0.07 -0.48   
     19   H                0.01 -0.05  0.01    0.01 -0.01 -0.00    0.04 -0.00 -0.02   

  Vibration                       43                  44                  45          
  Freq [cm^-1]                1517.6121           1521.3037           1526.2106       
  Irrep                           A                   A                   A           
  Reduced mass [u]              1.0439              1.0766              1.0545        
  Force const [mDyne/A]         1.4166              1.4680              1.4472        
  Turning point v=0 [a0]        0.2757              0.2711              0.2735        
  RMS dev v=0 [a0 u^1/2]        0.1992              0.1989              0.1986        
  Char temp [K]               2183.5026           2188.8140           2195.8739       
  ----------------------------------------------------------------------------------
      1   N               -0.01  0.00 -0.01   -0.00  0.00  0.00    0.00 -0.02 -0.01   
      2   N               -0.00 -0.00 -0.00   -0.02 -0.03 -0.03    0.01  0.01  0.01   
      3   O               -0.00  0.00  0.00    0.01  0.01  0.01   -0.00 -0.00 -0.00   
      4   C                0.00 -0.00 -0.00    0.01 -0.00 -0.00   -0.01 -0.00 -0.00   
      5   O                0.00  0.00  0.00   -0.00 -0.00 -0.00    0.01  0.01  0.01   
      6   C                0.01  0.00 -0.00   -0.01  0.01 -0.02    0.00 -0.00  0.01   
      7   C               -0.01 -0.00 -0.00   -0.02 -0.02 -0.02    0.01  0.00  0.01   
      8   H               -0.01  0.08  0.05   -0.05  0.48  0.31    0.01 -0.11 -0.07   
      9   H                0.07  0.06 -0.01    0.42  0.36 -0.12   -0.09 -0.08  0.03   
     10   H                0.01 -0.06  0.03    0.04 -0.37  0.22   -0.00  0.09 -0.06   
     11   C               -0.01  0.02 -0.05    0.00 -0.02  0.00   -0.01 -0.05 -0.02   
     12   H                0.14 -0.08  0.66    0.05 -0.04 -0.09    0.29 -0.22  0.06   
     13   H               -0.32 -0.41  0.16   -0.02  0.18 -0.08   -0.28  0.48 -0.23   
     14   H                0.39  0.19 -0.10   -0.04  0.09  0.13    0.09  0.49  0.45   
     15   C                0.00 -0.00 -0.00    0.01 -0.02  0.02   -0.00  0.01 -0.01   
     16   H               -0.08  0.01  0.04    0.01 -0.13  0.06    0.02  0.04 -0.03   
     17   H               -0.04 -0.02 -0.06    0.06  0.07  0.03   -0.02 -0.03  0.01   
     18   H                0.03 -0.00  0.05   -0.01  0.07  0.09    0.01 -0.04 -0.04   
     19   H               -0.01  0.02 -0.00   -0.06  0.17 -0.03    0.02 -0.05  0.01   

  Vibration                       46                  47                  48          
  Freq [cm^-1]                1739.7632           1915.0168           3036.6298       
  Irrep                           A                   A                   A           
  Reduced mass [u]              6.1528             11.5768              1.0390        
  Force const [mDyne/A]        10.9725             25.0139              5.6451        
  Turning point v=0 [a0]        0.1061              0.0737              0.1953        
  RMS dev v=0 [a0 u^1/2]        0.1860              0.1773              0.1408        
  Char temp [K]               2503.1281           2755.2785           4369.0275       
  ----------------------------------------------------------------------------------
      1   N               -0.00  0.00  0.00    0.06 -0.17 -0.20    0.00 -0.00 -0.00   
      2   N                0.05 -0.41 -0.01   -0.01 -0.01  0.01    0.00 -0.00 -0.00   
      3   O                0.02  0.03  0.01    0.01 -0.02 -0.03    0.00 -0.00 -0.00   
      4   C               -0.01 -0.00 -0.01    0.27  0.52  0.57    0.00  0.00  0.00   
      5   O                0.01  0.00  0.00   -0.21 -0.22 -0.24   -0.00 -0.00 -0.00   
      6   C                0.01 -0.07  0.04    0.01  0.00  0.00    0.00 -0.00 -0.00   
      7   C                0.01  0.05 -0.01   -0.00 -0.00 -0.00    0.00 -0.00  0.00   
      8   H               -0.13  0.19 -0.08   -0.02  0.03  0.00    0.00  0.00 -0.00   
      9   H               -0.03  0.17 -0.26    0.02  0.02 -0.00   -0.00  0.00  0.00   
     10   H               -0.01 -0.06  0.09    0.00 -0.01 -0.00   -0.00 -0.00 -0.00   
     11   C                0.00 -0.01 -0.00   -0.01  0.01 -0.01    0.05 -0.02  0.02   
     12   H               -0.03  0.01  0.01   -0.08  0.10  0.09   -0.28 -0.44  0.01   
     13   H                0.01 -0.00 -0.00   -0.18 -0.01 -0.02    0.01  0.12  0.29   
     14   H                0.01 -0.00 -0.00   -0.15  0.00  0.15   -0.32  0.52 -0.51   
     15   C               -0.10  0.49 -0.02   -0.02  0.01 -0.00   -0.00 -0.00  0.00   
     16   H               -0.03  0.23 -0.11   -0.00 -0.00 -0.00   -0.00 -0.00 -0.00   
     17   H               -0.06 -0.18  0.08   -0.01 -0.02  0.02   -0.01  0.01  0.00   
     18   H                0.08 -0.18 -0.02   -0.00 -0.01 -0.01   -0.00 -0.00  0.00   
     19   H                0.20 -0.37  0.27    0.01 -0.01 -0.01    0.00  0.00  0.00   

  Vibration                       49                  50                  51          
  Freq [cm^-1]                3078.9965           3091.2927           3103.2426       
  Irrep                           A                   A                   A           
  Reduced mass [u]              1.0481              1.0987              1.0339        
  Force const [mDyne/A]         5.8540              6.1862              5.8661        
  Turning point v=0 [a0]        0.1932              0.1883              0.1937        
  RMS dev v=0 [a0 u^1/2]        0.1398              0.1395              0.1393        
  Char temp [K]               4429.9837           4447.6752           4464.8684       
  ----------------------------------------------------------------------------------
      1   N                0.00  0.00 -0.00   -0.00 -0.00 -0.00    0.00  0.00 -0.00   
      2   N               -0.00  0.00  0.00   -0.00 -0.00 -0.00    0.00 -0.00  0.00   
      3   O                0.00  0.00 -0.00    0.00 -0.00  0.00   -0.00 -0.00 -0.00   
      4   C               -0.00  0.00  0.00   -0.00  0.00 -0.00    0.00 -0.00 -0.00   
      5   O               -0.00 -0.00 -0.00    0.00  0.00  0.00    0.00  0.00  0.00   
      6   C               -0.03 -0.05  0.03    0.00  0.00 -0.00   -0.00 -0.00  0.00   
      7   C               -0.00  0.00 -0.00   -0.00 -0.00  0.00   -0.01 -0.03  0.04   
      8   H               -0.01 -0.00  0.00    0.01  0.01 -0.01    0.59  0.28 -0.37   
      9   H                0.00 -0.00 -0.00   -0.00  0.01  0.00   -0.22  0.31  0.20   
     10   H                0.01  0.00  0.01   -0.00 -0.00 -0.00   -0.30 -0.25 -0.30   
     11   C               -0.00 -0.00  0.00   -0.02 -0.08  0.04   -0.00  0.00 -0.00   
     12   H                0.01  0.01  0.00    0.44  0.66  0.01   -0.00 -0.01 -0.00   
     13   H               -0.00 -0.00 -0.00   -0.00 -0.10 -0.17   -0.00  0.01  0.02   
     14   H               -0.00  0.01 -0.01   -0.24  0.36 -0.37    0.01 -0.01  0.01   
     15   C               -0.00  0.00  0.00    0.00 -0.00  0.00   -0.00  0.00 -0.00   
     16   H               -0.12 -0.15 -0.23    0.00  0.00  0.00   -0.00 -0.00 -0.00   
     17   H               -0.24  0.18  0.13    0.00  0.00  0.00    0.00 -0.00  0.00   
     18   H                0.69  0.51 -0.25   -0.01 -0.01  0.00    0.01  0.01 -0.00   
     19   H               -0.01 -0.01 -0.02    0.00  0.00  0.00    0.01  0.01  0.01   

  Vibration                       52                  53                  54          
  Freq [cm^-1]                3144.3144           3169.6222           3194.1860       
  Irrep                           A                   A                   A           
  Reduced mass [u]              1.0996              1.0876              1.1029        
  Force const [mDyne/A]         6.4052              6.4380              6.6299        
  Turning point v=0 [a0]        0.1866              0.1869              0.1849        
  RMS dev v=0 [a0 u^1/2]        0.1384              0.1378              0.1373        
  Char temp [K]               4523.9614           4560.3738           4595.7155       
  ----------------------------------------------------------------------------------
      1   N               -0.00 -0.00  0.00    0.00 -0.00 -0.00   -0.00  0.00 -0.00   
      2   N                0.00 -0.00 -0.00   -0.00 -0.00 -0.00    0.00 -0.00  0.00   
      3   O                0.00  0.00  0.00    0.00 -0.00  0.00    0.00  0.00  0.00   
      4   C               -0.00  0.00 -0.00   -0.00  0.00  0.00    0.00  0.00  0.00   
      5   O                0.00  0.00  0.00   -0.00 -0.00 -0.00   -0.00 -0.00 -0.00   
      6   C                0.00  0.00 -0.00   -0.08  0.01  0.01   -0.00  0.00 -0.00   
      7   C               -0.00  0.00 -0.00    0.00  0.00  0.00   -0.09 -0.02  0.01   
      8   H               -0.01 -0.00  0.01   -0.00 -0.00  0.00    0.50  0.24 -0.32   
      9   H                0.00 -0.01 -0.00    0.00 -0.00 -0.00    0.21 -0.33 -0.20   
     10   H                0.01  0.00  0.01   -0.00 -0.00 -0.00    0.36  0.32  0.39   
     11   C               -0.02 -0.05 -0.08    0.00 -0.00  0.00    0.00  0.00  0.00   
     12   H                0.18  0.27 -0.02    0.00  0.00 -0.00   -0.00 -0.00  0.00   
     13   H                0.00  0.37  0.85    0.00  0.00  0.01   -0.00 -0.00 -0.00   
     14   H                0.05 -0.11  0.08   -0.00  0.01 -0.01   -0.00  0.00 -0.00   
     15   C               -0.00 -0.00  0.00   -0.00  0.00  0.00    0.00  0.00  0.01   
     16   H               -0.00 -0.00 -0.00    0.12  0.18  0.30    0.00  0.00  0.00   
     17   H               -0.00  0.00  0.00    0.58 -0.50 -0.33   -0.00  0.00  0.00   
     18   H               -0.00 -0.00  0.00    0.31  0.24 -0.11   -0.00 -0.00  0.00   
     19   H                0.00 -0.00 -0.00   -0.00 -0.00 -0.01   -0.03 -0.03 -0.06   

  Vibration                       55                  56                  57          
  Freq [cm^-1]                3219.0009           3222.5255           3235.9671       
  Irrep                           A                   A                   A           
  Reduced mass [u]              1.1038              1.1018              1.0966        
  Force const [mDyne/A]         6.7385              6.7412              6.7654        
  Turning point v=0 [a0]        0.1841              0.1841              0.1842        
  RMS dev v=0 [a0 u^1/2]        0.1368              0.1367              0.1364        
  Char temp [K]               4631.4186           4636.4896           4655.8291       
  ----------------------------------------------------------------------------------
      1   N                0.00  0.00  0.00    0.00 -0.00 -0.00   -0.00  0.00  0.00   
      2   N                0.00 -0.00  0.00    0.00 -0.00 -0.00   -0.00  0.00 -0.00   
      3   O               -0.00 -0.00  0.00   -0.00 -0.00 -0.00    0.00  0.00  0.00   
      4   C                0.00 -0.00 -0.00   -0.00  0.00  0.00    0.00  0.00  0.00   
      5   O                0.00  0.00 -0.00   -0.00 -0.00 -0.00   -0.00 -0.00 -0.00   
      6   C               -0.00 -0.02 -0.02   -0.01 -0.04 -0.05   -0.01 -0.04 -0.04   
      7   C                0.01 -0.06 -0.05    0.00  0.04  0.03   -0.00 -0.01 -0.01   
      8   H               -0.04 -0.03  0.02    0.01  0.01  0.00    0.01  0.00 -0.01   
      9   H               -0.35  0.50  0.32    0.19 -0.27 -0.17   -0.04  0.05  0.03   
     10   H                0.30  0.25  0.30   -0.20 -0.17 -0.20    0.07  0.06  0.07   
     11   C                0.00  0.00 -0.00   -0.00  0.00  0.00   -0.00  0.00 -0.00   
     12   H               -0.00 -0.00 -0.00   -0.00 -0.00  0.00   -0.00 -0.00  0.00   
     13   H                0.00  0.00  0.00    0.00 -0.00 -0.00   -0.00 -0.00 -0.00   
     14   H                0.00 -0.00  0.00    0.00  0.00 -0.00    0.00 -0.00  0.00   
     15   C                0.01  0.01  0.03    0.02  0.02  0.04   -0.02 -0.03 -0.06   
     16   H                0.10  0.14  0.22    0.23  0.30  0.48    0.22  0.27  0.45   
     17   H               -0.10  0.08  0.05   -0.23  0.18  0.12   -0.20  0.16  0.11   
     18   H                0.02  0.01 -0.01    0.06  0.03 -0.02    0.07  0.05 -0.03   
     19   H               -0.15 -0.15 -0.35   -0.19 -0.19 -0.44    0.28  0.27  0.64   

  ==> Thermochemistry Components <==

  Entropy, S
    Electronic S            0.000 [cal/(mol K)]        0.000 [J/(mol K)]       0.00000000 [mEh/K] (multiplicity = 1)
    Translational S        40.502 [cal/(mol K)]      169.460 [J/(mol K)]       0.06454374 [mEh/K] (mol. weight = 130.0742 [u], P = 101325.00 [Pa])
    Rotational S           28.876 [cal/(mol K)]      120.817 [J/(mol K)]       0.04601670 [mEh/K] (symmetry no. = 1)
    Vibrational S          25.634 [cal/(mol K)]      107.253 [J/(mol K)]       0.04085055 [mEh/K]
  Total S                  95.012 [cal/(mol K)]      397.530 [J/(mol K)]       0.15141099 [mEh/K]
  Correction S              0.000 [cal/(mol K)]        0.000 [J/(mol K)]       0.00000000 [mEh/K]

  Constant volume heat capacity, Cv
    Electronic Cv           0.000 [cal/(mol K)]        0.000 [J/(mol K)]       0.00000000 [mEh/K]
    Translational Cv        2.981 [cal/(mol K)]       12.472 [J/(mol K)]       0.00475022 [mEh/K]
    Rotational Cv           2.981 [cal/(mol K)]       12.472 [J/(mol K)]       0.00475022 [mEh/K]
    Vibrational Cv         28.310 [cal/(mol K)]      118.448 [J/(mol K)]       0.04511459 [mEh/K]
  Total Cv                 34.271 [cal/(mol K)]      143.392 [J/(mol K)]       0.05461504 [mEh/K]
  Correction Cv             0.000 [cal/(mol K)]        0.000 [J/(mol K)]       0.00000000 [mEh/K]

  Constant pressure heat capacity, Cp
    Electronic Cp           0.000 [cal/(mol K)]        0.000 [J/(mol K)]       0.00000000 [mEh/K]
    Translational Cp        4.968 [cal/(mol K)]       20.786 [J/(mol K)]       0.00791704 [mEh/K]
    Rotational Cp           2.981 [cal/(mol K)]       12.472 [J/(mol K)]       0.00475022 [mEh/K]
    Vibrational Cp         28.310 [cal/(mol K)]      118.448 [J/(mol K)]       0.04511459 [mEh/K]
  Total Cp                 36.259 [cal/(mol K)]      151.706 [J/(mol K)]       0.05778185 [mEh/K]
  Correction Cp             0.000 [cal/(mol K)]        0.000 [J/(mol K)]       0.00000000 [mEh/K]

  ==> Thermochemistry Energy Analysis <==

  Raw electronic energy, E0
  Total E0, Electronic energy at well bottom at 0 [K]                 -456.20876141 [Eh]

  Zero-point energy, ZPE_vib = Sum_i nu_i / 2
    Electronic ZPE          0.000 [kcal/mol]        0.000 [kJ/mol]       0.00000000 [Eh]
    Translational ZPE       0.000 [kcal/mol]        0.000 [kJ/mol]       0.00000000 [Eh]
    Rotational ZPE          0.000 [kcal/mol]        0.000 [kJ/mol]       0.00000000 [Eh]
    Vibrational ZPE        98.880 [kcal/mol]      413.715 [kJ/mol]       0.15757560 [Eh]       34583.842 [cm^-1]
  Correction ZPE           98.880 [kcal/mol]      413.715 [kJ/mol]       0.15757560 [Eh]       34583.842 [cm^-1]
  Total ZPE, Electronic energy at 0 [K]                               -456.05118581 [Eh]

  Thermal Energy, E (includes ZPE)
    Electronic E            0.000 [kcal/mol]        0.000 [kJ/mol]       0.00000000 [Eh]
    Translational E         0.889 [kcal/mol]        3.718 [kJ/mol]       0.00141628 [Eh]
    Rotational E            0.889 [kcal/mol]        3.718 [kJ/mol]       0.00141628 [Eh]
    Vibrational E         103.174 [kcal/mol]      431.679 [kJ/mol]       0.16441776 [Eh]
  Correction E            104.951 [kcal/mol]      439.116 [kJ/mol]       0.16725032 [Eh]
  Total E, Electronic energy at  298.15 [K]                           -456.04151109 [Eh]

  Enthalpy, H_trans = E_trans + k_B * T
    Electronic H            0.000 [kcal/mol]        0.000 [kJ/mol]       0.00000000 [Eh]
    Translational H         1.481 [kcal/mol]        6.197 [kJ/mol]       0.00236046 [Eh]
    Rotational H            0.889 [kcal/mol]        3.718 [kJ/mol]       0.00141628 [Eh]
    Vibrational H         103.174 [kcal/mol]      431.679 [kJ/mol]       0.16441776 [Eh]
  Correction H            105.544 [kcal/mol]      441.595 [kJ/mol]       0.16819450 [Eh]
  Total H, Enthalpy at  298.15 [K]                                    -456.04056691 [Eh]

  Gibbs free energy, G = H - T * S
    Electronic G            0.000 [kcal/mol]        0.000 [kJ/mol]       0.00000000 [Eh]
    Translational G       -10.594 [kcal/mol]      -44.327 [kJ/mol]      -0.01688325 [Eh]
    Rotational G           -7.721 [kcal/mol]      -32.303 [kJ/mol]      -0.01230360 [Eh]
    Vibrational G          95.531 [kcal/mol]      399.701 [kJ/mol]       0.15223817 [Eh]
  Correction G             77.216 [kcal/mol]      323.071 [kJ/mol]       0.12305131 [Eh]
  Total G, Free enthalpy at  298.15 [K]                               -456.08571010 [Eh]

    Psi4 stopped on: Tuesday, 12 February 2019 02:40PM
    Psi4 wall time for execution: 0:41:48.86

*** Psi4 exiting successfully. Buy a developer a beer!
