
    -----------------------------------------------------------------------
          Psi4: An Open-Source Ab Initio Electronic Structure Package
                               Psi4 1.2.1 release

                         Git: Rev {HEAD} 406f4de 


    R. M. Parrish, L. A. Burns, D. G. A. Smith, A. C. Simmonett,
    A. E. DePrince III, E. G. Hohenstein, U. Bozkaya, A. Yu. Sokolov,
    R. Di Remigio, R. M. Richard, J. F. Gonthier, A. M. James,
    H. R. McAlexander, A. Kumar, M. Saitow, X. Wang, B. P. Pritchard,
    P. Verma, H. F. Schaefer III, K. Patkowski, R. A. King, E. F. Valeev,
    F. A. Evangelista, J. M. Turney, T. D. Crawford, and C. D. Sherrill,
    J. Chem. Theory Comput. 13(7) pp 3185--3197 (2017).
    (doi: 10.1021/acs.jctc.7b00174)


                         Additional Contributions by
    P. Kraus, H. Kruse, M. H. Lechner, M. C. Schieber, and R. A. Shaw

    -----------------------------------------------------------------------


    Psi4 started on: Monday, 14 January 2019 05:23PM

    Process ID: 22447
    Host:       localhost.localdomain
    PSIDATADIR: /root/psi4conda/share/psi4
    Memory:     500.0 MiB
    Threads:    1
    
  ==> Input File <==

--------------------------------------------------------------------------
molecule{
0 1
    N           -0.890645920780     0.312549809507     0.643696794401
    N            1.422552498418    -0.232204527187    -0.000555956041
    O            0.563133779579    -0.848655057895    -0.856851204860
    C           -0.961439798960    -0.568522730575    -0.301554646328
    O           -1.750348575007    -1.260764861648    -0.925483229825
    C            0.747644955407     1.969269375561    -0.882365557536
    C            1.942725085620    -1.114610435911     1.039346944681
    H            1.098824089282    -1.448820926807     1.649992097832
    H            2.415153623976    -1.963402505049     0.545653410686
    H            2.672131469582    -0.569150222186     1.640411122607
    C           -2.172767089482     0.805375255022     1.140879300779
    H           -2.939824112904     0.022022073505     1.096107667602
    H           -2.051842421571     1.131841506946     2.176662602510
    H           -2.522583313952     1.659364495864     0.545909386265
    C            1.211545136145     1.043869476171     0.184394803385
    H            0.228534512952     1.434380239458    -1.676329288278
    H            0.085223315915     2.721512307926    -0.448488145827
    H            1.623535960547     2.485194284190    -1.299771982414
    H            1.701339847474     1.463123112451     1.062367247769 

}

set{
   basis 6-31+G(d)
   freeze_core True
   normal_modes_write True
}

frequencies('mp2')
--------------------------------------------------------------------------
gradient() will perform analytic gradient computation.

*** tstart() called on localhost.localdomain
*** at Mon Jan 14 17:23:31 2019

    SCF Algorithm Type (re)set to DF.

*** tstart() called on localhost.localdomain
*** at Mon Jan 14 17:23:31 2019

   => Loading Basis Set <=

    Name: 6-31+G(D)
    Role: ORBITAL
    Keyword: BASIS
    atoms 1-2                entry N          line   138 file /root/psi4conda/share/psi4/basis/6-31pg_d_.gbs 
    atoms 3, 5               entry O          line   157 file /root/psi4conda/share/psi4/basis/6-31pg_d_.gbs 
    atoms 4, 6-7, 11, 15     entry C          line   119 file /root/psi4conda/share/psi4/basis/6-31pg_d_.gbs 
    atoms 8-10, 12-14, 16-19 entry H          line    46 file /root/psi4conda/share/psi4/basis/6-31pg_d_.gbs 


         ---------------------------------------------------------
                                   SCF
            by Justin Turney, Rob Parrish, Andy Simmonett
                             and Daniel Smith
                              RHF Reference
                        1 Threads,    500 MiB Core
         ---------------------------------------------------------

  ==> Geometry <==

    Molecular point group: c1
    Full point group: C1

    Geometry (in Angstrom), charge = 0, multiplicity = 1:

       Center              X                  Y                   Z               Mass       
    ------------   -----------------  -----------------  -----------------  -----------------
         N           -0.890645920780     0.312549809507     0.643696794401    14.003074004780
         N            1.422552498418    -0.232204527187    -0.000555956041    14.003074004780
         O            0.563133779579    -0.848655057895    -0.856851204860    15.994914619560
         C           -0.961439798960    -0.568522730575    -0.301554646328    12.000000000000
         O           -1.750348575007    -1.260764861648    -0.925483229825    15.994914619560
         C            0.747644955407     1.969269375561    -0.882365557536    12.000000000000
         C            1.942725085620    -1.114610435911     1.039346944681    12.000000000000
         H            1.098824089282    -1.448820926807     1.649992097832     1.007825032070
         H            2.415153623976    -1.963402505049     0.545653410686     1.007825032070
         H            2.672131469582    -0.569150222186     1.640411122607     1.007825032070
         C           -2.172767089482     0.805375255022     1.140879300779    12.000000000000
         H           -2.939824112904     0.022022073505     1.096107667602     1.007825032070
         H           -2.051842421571     1.131841506946     2.176662602510     1.007825032070
         H           -2.522583313952     1.659364495864     0.545909386265     1.007825032070
         C            1.211545136145     1.043869476171     0.184394803385    12.000000000000
         H            0.228534512952     1.434380239458    -1.676329288278     1.007825032070
         H            0.085223315915     2.721512307926    -0.448488145827     1.007825032070
         H            1.623535960547     2.485194284190    -1.299771982414     1.007825032070
         H            1.701339847474     1.463123112451     1.062367247769     1.007825032070

  Running in c1 symmetry.

  Rotational constants: A =      0.06966  B =      0.04708  C =      0.03971 [cm^-1]
  Rotational constants: A =   2088.35358  B =   1411.38121  C =   1190.34623 [MHz]
  Nuclear repulsion =  485.374553141537888

  Charge       = 0
  Multiplicity = 1
  Electrons    = 70
  Nalpha       = 35
  Nbeta        = 35

  ==> Algorithm <==

  SCF Algorithm Type is DF.
  DIIS enabled.
  MOM disabled.
  Fractional occupation disabled.
  Guess Type is SAD.
  Energy threshold   = 1.00e-10
  Density threshold  = 1.00e-10
  Integral threshold = 0.00e+00

  ==> Primary Basis <==

  Basis Set: 6-31+G(D)
    Blend: 6-31+G(D)
    Number of shells: 92
    Number of basis function: 191
    Number of Cartesian functions: 191
    Spherical Harmonics?: false
    Max angular momentum: 2

   => Loading Basis Set <=

    Name: (6-31+G(D) AUX)
    Role: JKFIT
    Keyword: DF_BASIS_SCF
    atoms 1-2                entry N          line   252 file /root/psi4conda/share/psi4/basis/heavy-aug-cc-pvdz-jkfit.gbs 
    atoms 3, 5               entry O          line   310 file /root/psi4conda/share/psi4/basis/heavy-aug-cc-pvdz-jkfit.gbs 
    atoms 4, 6-7, 11, 15     entry C          line   194 file /root/psi4conda/share/psi4/basis/heavy-aug-cc-pvdz-jkfit.gbs 
    atoms 8-10, 12-14, 16-19 entry H          line   116 file /root/psi4conda/share/psi4/basis/heavy-aug-cc-pvdz-jkfit.gbs 

  ==> Pre-Iterations <==

   -------------------------------------------------------
    Irrep   Nso     Nmo     Nalpha   Nbeta   Ndocc  Nsocc
   -------------------------------------------------------
     A        191     191       0       0       0       0
   -------------------------------------------------------
    Total     191     191      35      35      35       0
   -------------------------------------------------------

  ==> Integral Setup <==

  ==> DiskDFJK: Density-Fitted J/K Matrices <==

    J tasked:                  Yes
    K tasked:                  Yes
    wK tasked:                  No
    OpenMP threads:              1
    Integrals threads:           1
    Memory (MB):               375
    Algorithm:                Core
    Integral Cache:           NONE
    Schwarz Cutoff:          1E-12
    Fitting Condition:       1E-12

   => Auxiliary Basis Set <=

  Basis Set: (6-31+G(D) AUX)
    Blend: HEAVY-AUG-CC-PVDZ-JKFIT
    Number of shells: 342
    Number of basis function: 1159
    Number of Cartesian functions: 1159
    Spherical Harmonics?: false
    Max angular momentum: 3

  Minimum eigenvalue in the overlap matrix is 5.3258467026E-05.
  Using Symmetric Orthogonalization.

  SCF Guess: Superposition of Atomic Densities via on-the-fly atomic UHF.

  ==> Iterations <==

                           Total Energy        Delta E     RMS |[F,P]|

   @DF-RHF iter   0:  -456.90071726628423   -4.56901e+02   2.86863e-02 
   @DF-RHF iter   1:  -453.33731622478444    3.56340e+00   3.76359e-03 
   @DF-RHF iter   2:  -453.56351482317376   -2.26199e-01   2.38032e-03 DIIS
   @DF-RHF iter   3:  -453.64662933068018   -8.31145e-02   5.69960e-04 DIIS
   @DF-RHF iter   4:  -453.65691965777194   -1.02903e-02   1.89340e-04 DIIS
   @DF-RHF iter   5:  -453.65803130309496   -1.11165e-03   8.09676e-05 DIIS
   @DF-RHF iter   6:  -453.65827037863545   -2.39076e-04   2.67727e-05 DIIS
   @DF-RHF iter   7:  -453.65830896230705   -3.85837e-05   1.12989e-05 DIIS
   @DF-RHF iter   8:  -453.65831381263837   -4.85033e-06   3.46938e-06 DIIS
   @DF-RHF iter   9:  -453.65831443326505   -6.20627e-07   1.49815e-06 DIIS
   @DF-RHF iter  10:  -453.65831453408100   -1.00816e-07   5.32410e-07 DIIS
   @DF-RHF iter  11:  -453.65831455439530   -2.03143e-08   2.47130e-07 DIIS
   @DF-RHF iter  12:  -453.65831455809450   -3.69920e-09   1.15376e-07 DIIS
   @DF-RHF iter  13:  -453.65831455892373   -8.29232e-10   3.66750e-08 DIIS
   @DF-RHF iter  14:  -453.65831455901878   -9.50422e-11   1.45123e-08 DIIS
   @DF-RHF iter  15:  -453.65831455902861   -9.83391e-12   6.85540e-09 DIIS
   @DF-RHF iter  16:  -453.65831455903106   -2.44427e-12   2.65723e-09 DIIS
   @DF-RHF iter  17:  -453.65831455903356   -2.50111e-12   1.18206e-09 DIIS
   @DF-RHF iter  18:  -453.65831455903327    2.84217e-13   3.93432e-10 DIIS
   @DF-RHF iter  19:  -453.65831455903367   -3.97904e-13   1.98650e-10 DIIS
   @DF-RHF iter  20:  -453.65831455903418   -5.11591e-13   7.32100e-11 DIIS

  ==> Post-Iterations <==

    Orbital Energies [Eh]
    ---------------------

    Doubly Occupied:                                                      

       1A    -20.612253     2A    -20.522966     3A    -15.698884  
       4A    -15.532956     5A    -11.382138     6A    -11.377359  
       7A    -11.293843     8A    -11.267912     9A    -11.242603  
      10A     -1.468325    11A     -1.357775    12A     -1.207758  
      13A     -1.190519    14A     -1.074836    15A     -0.975229  
      16A     -0.929251    17A     -0.835587    18A     -0.749842  
      19A     -0.722921    20A     -0.695172    21A     -0.671866  
      22A     -0.627952    23A     -0.621090    24A     -0.610236  
      25A     -0.593305    26A     -0.587431    27A     -0.584960  
      28A     -0.569660    29A     -0.541715    30A     -0.534157  
      31A     -0.491047    32A     -0.463586    33A     -0.442674  
      34A     -0.372869    35A     -0.346826  

    Virtual:                                                              

      36A      0.048149    37A      0.070503    38A      0.073073  
      39A      0.080554    40A      0.089222    41A      0.102991  
      42A      0.110934    43A      0.114907    44A      0.115477  
      45A      0.127606    46A      0.137586    47A      0.144332  
      48A      0.156456    49A      0.162104    50A      0.169099  
      51A      0.178339    52A      0.185511    53A      0.194888  
      54A      0.208227    55A      0.219031    56A      0.235999  
      57A      0.247667    58A      0.250161    59A      0.287793  
      60A      0.298989    61A      0.316626    62A      0.320176  
      63A      0.324400    64A      0.332130    65A      0.347604  
      66A      0.356998    67A      0.363215    68A      0.367897  
      69A      0.377704    70A      0.381354    71A      0.386954  
      72A      0.401951    73A      0.406032    74A      0.422115  
      75A      0.425895    76A      0.439400    77A      0.444965  
      78A      0.454801    79A      0.469488    80A      0.469684  
      81A      0.479373    82A      0.491338    83A      0.502294  
      84A      0.525965    85A      0.538528    86A      0.554955  
      87A      0.582064    88A      0.588463    89A      0.604164  
      90A      0.650099    91A      0.819637    92A      0.839139  
      93A      0.864279    94A      0.901941    95A      0.915619  
      96A      0.947806    97A      0.954335    98A      0.956977  
      99A      0.958284   100A      0.978914   101A      1.002529  
     102A      1.011691   103A      1.022175   104A      1.069583  
     105A      1.114388   106A      1.142547   107A      1.166912  
     108A      1.185567   109A      1.187875   110A      1.199400  
     111A      1.224583   112A      1.246854   113A      1.249311  
     114A      1.267616   115A      1.290122   116A      1.304501  
     117A      1.316910   118A      1.341113   119A      1.351766  
     120A      1.372881   121A      1.387483   122A      1.436830  
     123A      1.473091   124A      1.500485   125A      1.516043  
     126A      1.563201   127A      1.603705   128A      1.611115  
     129A      1.618573   130A      1.635386   131A      1.665643  
     132A      1.682317   133A      1.706777   134A      1.725228  
     135A      1.729876   136A      1.795990   137A      1.829157  
     138A      1.841721   139A      1.872576   140A      1.918221  
     141A      1.937042   142A      1.950407   143A      1.993089  
     144A      2.043192   145A      2.136592   146A      2.143198  
     147A      2.179247   148A      2.205010   149A      2.237692  
     150A      2.246613   151A      2.287934   152A      2.301759  
     153A      2.334287   154A      2.340073   155A      2.393797  
     156A      2.423238   157A      2.474122   158A      2.485932  
     159A      2.535133   160A      2.557298   161A      2.562598  
     162A      2.567722   163A      2.596811   164A      2.614630  
     165A      2.636109   166A      2.696112   167A      2.706485  
     168A      2.733144   169A      2.762884   170A      2.793475  
     171A      2.872692   172A      2.947071   173A      3.062172  
     174A      3.119677   175A      3.148546   176A      3.159096  
     177A      3.188435   178A      3.262502   179A      3.390583  
     180A      3.451008   181A      3.491006   182A      3.702235  
     183A      4.565907   184A      4.641605   185A      4.679320  
     186A      4.785274   187A      4.842059   188A      4.859016  
     189A      4.890983   190A      5.020669   191A      5.101049  

    Final Occupation by Irrep:
              A 
    DOCC [    35 ]

  Energy converged.

  @DF-RHF Final Energy:  -453.65831455903418

   => Energetics <=

    Nuclear Repulsion Energy =            485.3745531415378878
    One-Electron Energy =               -1581.6707294838456619
    Two-Electron Energy =                 642.6378617832734790
    Total Energy =                       -453.6583145590342383



Properties will be evaluated at   0.000000,   0.000000,   0.000000 [a0]

Properties computed using the SCF density matrix

  Nuclear Dipole Moment: [e a0]
     X:     2.1588      Y:     6.4920      Z:     4.9511

  Electronic Dipole Moment: [e a0]
     X:     0.0403      Y:    -4.6443      Z:    -3.6177

  Dipole Moment: [e a0]
     X:     2.1991      Y:     1.8477      Z:     1.3334     Total:     3.1667

  Dipole Moment: [D]
     X:     5.5895      Y:     4.6963      Z:     3.3893     Total:     8.0489


*** tstop() called on localhost.localdomain at Mon Jan 14 17:23:46 2019
Module time:
	user time   =      14.78 seconds =       0.25 minutes
	system time =       0.42 seconds =       0.01 minutes
	total time  =         15 seconds =       0.25 minutes
Total time:
	user time   =      14.78 seconds =       0.25 minutes
	system time =       0.42 seconds =       0.01 minutes
	total time  =         15 seconds =       0.25 minutes

  //>>>>>>>>>>>>>>>>>>>>>>>>>>>>>>>>>>>//
  //               DFMP2               //
  //<<<<<<<<<<<<<<<<<<<<<<<<<<<<<<<<<<<//

   => Loading Basis Set <=

    Name: (6-31+G(D) AUX)
    Role: RIFIT
    Keyword: DF_BASIS_MP2
    atoms 1-2                entry N          line   162 file /root/psi4conda/share/psi4/basis/heavy-aug-cc-pvdz-ri.gbs 
    atoms 3, 5               entry O          line   208 file /root/psi4conda/share/psi4/basis/heavy-aug-cc-pvdz-ri.gbs 
    atoms 4, 6-7, 11, 15     entry C          line   116 file /root/psi4conda/share/psi4/basis/heavy-aug-cc-pvdz-ri.gbs 
    atoms 8-10, 12-14, 16-19 entry H          line    44 file /root/psi4conda/share/psi4/basis/heavy-aug-cc-pvdz-ri.gbs 

	 --------------------------------------------------------
	                          DF-MP2                         
	      2nd-Order Density-Fitted Moller-Plesset Theory     
	              RMP2 Wavefunction,   1 Threads             
	                                                         
	        Rob Parrish, Justin Turney, Andy Simmonett,      
	           Ed Hohenstein, and C. David Sherrill          
	 --------------------------------------------------------

   => Auxiliary Basis Set <=

  Basis Set: (6-31+G(D) AUX)
    Blend: HEAVY-AUG-CC-PVDZ-RI
    Number of shells: 258
    Number of basis function: 788
    Number of Cartesian functions: 924
    Spherical Harmonics?: true
    Max angular momentum: 3

	 --------------------------------------------------------
	                 NBF =   191, NAUX =   788
	 --------------------------------------------------------
	   CLASS    FOCC     OCC    AOCC    AVIR     VIR    FVIR
	   PAIRS       9      35      26     156     156       0
	 --------------------------------------------------------


         ------------------------------------------------------------
                                     CPHF                           
                                  Rob Parrish                       
         ------------------------------------------------------------

  ==> Geometry <==

    Molecular point group: c1
    Full point group: C1

    Geometry (in Angstrom), charge = 0, multiplicity = 1:

       Center              X                  Y                   Z               Mass       
    ------------   -----------------  -----------------  -----------------  -----------------
         N           -0.890645920780     0.312549809507     0.643696794401    14.003074004780
         N            1.422552498418    -0.232204527187    -0.000555956041    14.003074004780
         O            0.563133779579    -0.848655057895    -0.856851204860    15.994914619560
         C           -0.961439798960    -0.568522730575    -0.301554646328    12.000000000000
         O           -1.750348575007    -1.260764861648    -0.925483229825    15.994914619560
         C            0.747644955407     1.969269375561    -0.882365557536    12.000000000000
         C            1.942725085620    -1.114610435911     1.039346944681    12.000000000000
         H            1.098824089282    -1.448820926807     1.649992097832     1.007825032070
         H            2.415153623976    -1.963402505049     0.545653410686     1.007825032070
         H            2.672131469582    -0.569150222186     1.640411122607     1.007825032070
         C           -2.172767089482     0.805375255022     1.140879300779    12.000000000000
         H           -2.939824112904     0.022022073505     1.096107667602     1.007825032070
         H           -2.051842421571     1.131841506946     2.176662602510     1.007825032070
         H           -2.522583313952     1.659364495864     0.545909386265     1.007825032070
         C            1.211545136145     1.043869476171     0.184394803385    12.000000000000
         H            0.228534512952     1.434380239458    -1.676329288278     1.007825032070
         H            0.085223315915     2.721512307926    -0.448488145827     1.007825032070
         H            1.623535960547     2.485194284190    -1.299771982414     1.007825032070
         H            1.701339847474     1.463123112451     1.062367247769     1.007825032070

  Nuclear repulsion =  485.374553141537888
  Reference energy  = -453.658314559034181

  ==> Basis Set <==

  Basis Set: 6-31+G(D)
    Blend: 6-31+G(D)
    Number of shells: 92
    Number of basis function: 191
    Number of Cartesian functions: 191
    Spherical Harmonics?: false
    Max angular momentum: 2

  ==> CGRSolver (by Rob Parrish) <==

   Number of roots    =         1
   Preconditioning    =    JACOBI
   Convergence cutoff =     1E-06
   Maximum iterations =       100

  ==> CPHFRHamiltonian (by Rob Parrish) <== 

  ==> DiskDFJK: Density-Fitted J/K Matrices <==

    J tasked:                  Yes
    K tasked:                  Yes
    wK tasked:                  No
    OpenMP threads:              1
    Integrals threads:           1
    Memory (MB):               375
    Algorithm:                Core
    Integral Cache:           NONE
    Schwarz Cutoff:          1E-12
    Fitting Condition:       1E-12

   => Auxiliary Basis Set <=

  Basis Set: (6-31+G(D) AUX)
    Blend: HEAVY-AUG-CC-PVDZ-JKFIT
    Number of shells: 342
    Number of basis function: 1159
    Number of Cartesian functions: 1159
    Spherical Harmonics?: false
    Max angular momentum: 3

  ==> CPHF Iterations <==

  => Iterations <=

             Iter  Converged  Remaining    Residual
  CGR           1          0          1   1.778E-01
  CGR           2          0          1   5.561E-02
  CGR           3          0          1   2.688E-02
  CGR           4          0          1   8.733E-03
  CGR           5          0          1   4.052E-03
  CGR           6          0          1   1.307E-03
  CGR           7          0          1   6.303E-04
  CGR           8          0          1   2.356E-04
  CGR           9          0          1   8.431E-05
  CGR          10          0          1   2.836E-05
  CGR          11          0          1   8.553E-06
  CGR          12          0          1   3.161E-06
  CGR          13          0          1   1.298E-06
  CGR          14          1          0   3.981E-07

    CGRSolver converged.

  ==> DFCorrGrad: Density-Fitted Correlated Gradients <==

    OpenMP threads:              1
    Integrals threads:           1
    Memory (MB):               375
    Schwarz Cutoff:          0E+00
    Fitting Condition:       1E-12

   => Auxiliary Basis Set <=

  Basis Set: (6-31+G(D) AUX)
    Blend: HEAVY-AUG-CC-PVDZ-JKFIT
    Number of shells: 342
    Number of basis function: 1159
    Number of Cartesian functions: 1159
    Spherical Harmonics?: false
    Max angular momentum: 3

	-----------------------------------------------------------
	 ==================> DF-MP2 Energies <==================== 
	-----------------------------------------------------------
	 Reference Energy          =    -453.6583145590341815 [Eh]
	 Singles Energy            =      -0.0000000000000001 [Eh]
	 Same-Spin Energy          =      -0.3623056285986372 [Eh]
	 Opposite-Spin Energy      =      -1.0035607075489406 [Eh]
	 Correlation Energy        =      -1.3658663361475778 [Eh]
	 Total Energy              =    -455.0241808951817575 [Eh]
	-----------------------------------------------------------
	 ================> DF-SCS-MP2 Energies <================== 
	-----------------------------------------------------------
	 SCS Same-Spin Scale       =       0.3333333333333333 [-]
	 SCS Opposite-Spin Scale   =       1.2000000000000000 [-]
	 SCS Same-Spin Energy      =      -0.1207685428662124 [Eh]
	 SCS Opposite-Spin Energy  =      -1.2042728490587287 [Eh]
	 SCS Correlation Energy    =      -1.3250413919249411 [Eh]
	 SCS Total Energy          =    -454.9833559509590941 [Eh]
	-----------------------------------------------------------


  -Total Gradient:
     Atom            X                  Y                   Z
    ------   -----------------  -----------------  -----------------
       1        0.000034040606     0.000046529379     0.000017510862
       2        0.000042655314     0.000074860340     0.000110071511
       3       -0.000289200507    -0.000002930068    -0.000050677268
       4        0.000265698216    -0.000067241057    -0.000020078511
       5       -0.000094255465    -0.000036311300    -0.000048330267
       6        0.000045052330    -0.000005631350    -0.000007475367
       7        0.000033967806    -0.000019566570     0.000009230819
       8        0.000001747373     0.000002132816    -0.000011949055
       9        0.000007838531     0.000003214693     0.000000143174
      10       -0.000000834477    -0.000000920088     0.000005687226
      11       -0.000100151590     0.000019421317     0.000009902889
      12        0.000034675089     0.000001338836    -0.000014470133
      13        0.000021637131    -0.000020582411    -0.000019139221
      14        0.000008278332    -0.000013453821     0.000007931184
      15       -0.000010142564     0.000041770532     0.000013875825
      16       -0.000020760986    -0.000007133036    -0.000002500901
      17        0.000016026706    -0.000004099147     0.000009694777
      18        0.000003783547    -0.000016760620    -0.000009213990
      19       -0.000000055396     0.000005361565    -0.000000213555


*** tstop() called on localhost.localdomain at Mon Jan 14 17:24:25 2019
Module time:
	user time   =      51.69 seconds =       0.86 minutes
	system time =       1.89 seconds =       0.03 minutes
	total time  =         54 seconds =       0.90 minutes
Total time:
	user time   =      51.69 seconds =       0.86 minutes
	system time =       1.89 seconds =       0.03 minutes
	total time  =         54 seconds =       0.90 minutes

  Based on options and gradient (rms=6.19E-05), recommend projecting translations and projecting rotations.
hessian() will perform frequency computation by finite difference of analytic gradients.

-------------------------------------------------------------

  Using finite-differences of gradients to determine vibrational frequencies and 
  normal modes.  Resulting frequencies are only valid at stationary points.
	Generating geometries for use with 3-point formula.
	Displacement size will be 5.00e-03.
	Number of atoms is 19.
	Number of irreps is 1.
	Number of SALCS is 51.
	Translations projected? 1. Rotations projected? 1.
	Index of salcs per irrep:
	 1 :  0  1  2  3  4  5  6  7  8  9  10  11  12  13  14  15  16  17  18  19  20  21  22  23  24  25  26  27  28  29  30  31  32  33  34  35  36  37  38  39  40  41  42  43  44  45  46  47  48  49  50 
	Number of SALC's per irrep:
		 Irrep 1: 51
	Number of geometries (including reference) is 103.
	Number of displacements per irrep:
	  Irrep 1: 102

  //>>>>>>>>>>>>>>>>>>>>>>>>>>>>>>>>>>>//
  //   Loading displacement 1 of 103   //
  //<<<<<<<<<<<<<<<<<<<<<<<<<<<<<<<<<<<//
gradient() will perform analytic gradient computation.

*** tstart() called on localhost.localdomain
*** at Mon Jan 14 17:24:25 2019

    SCF Algorithm Type (re)set to DF.

*** tstart() called on localhost.localdomain
*** at Mon Jan 14 17:24:25 2019

   => Loading Basis Set <=

    Name: 6-31+G(D)
    Role: ORBITAL
    Keyword: BASIS
    atoms 1-2                entry N          line   138 file /root/psi4conda/share/psi4/basis/6-31pg_d_.gbs 
    atoms 3, 5               entry O          line   157 file /root/psi4conda/share/psi4/basis/6-31pg_d_.gbs 
    atoms 4, 6-7, 11, 15     entry C          line   119 file /root/psi4conda/share/psi4/basis/6-31pg_d_.gbs 
    atoms 8-10, 12-14, 16-19 entry H          line    46 file /root/psi4conda/share/psi4/basis/6-31pg_d_.gbs 


         ---------------------------------------------------------
                                   SCF
            by Justin Turney, Rob Parrish, Andy Simmonett
                             and Daniel Smith
                              RHF Reference
                        1 Threads,    500 MiB Core
         ---------------------------------------------------------

  ==> Geometry <==

    Molecular point group: c1
    Full point group: C1

    Geometry (in Angstrom), charge = 0, multiplicity = 1:

       Center              X                  Y                   Z               Mass       
    ------------   -----------------  -----------------  -----------------  -----------------
         N           -0.891306642429     0.312556280202     0.643713687450    14.003074004780
         N            1.422632207516    -0.232215175609    -0.000582856444    14.003074004780
         O            0.563192724321    -0.848659011984    -0.856862084444    15.994914619560
         C           -0.961368284279    -0.568515441714    -0.301536686758    12.000000000000
         O           -1.750294009547    -1.260751477115    -0.925450602378    15.994914619560
         C            0.747724512666     1.969264048084    -0.882379057768    12.000000000000
         C            1.942817802179    -1.114625295209     1.039309964657    12.000000000000
         H            1.098925820969    -1.448829655243     1.649970932023     1.007825032070
         H            2.415230675708    -1.963420750195     0.545607261753     1.007825032070
         H            2.672239605391    -0.569170724776     1.640360552174     1.007825032070
         C           -2.172658085850     0.805391171498     1.140920525142    12.000000000000
         H           -2.939721817505     0.022043745479     1.096163119932     1.007825032070
         H           -2.051711439098     1.131856202393     2.176701645761     1.007825032070
         H           -2.522479138979     1.659383212331     0.545957468631     1.007825032070
         C            1.211637885567     1.043860350859     0.184372271731    12.000000000000
         H            0.228595091970     1.434379039912    -1.676333161096     1.007825032070
         H            0.085316687134     2.721511806739    -0.448488923286     1.007825032070
         H            1.623611507428     2.485182527464    -1.299801844788     1.007825032070
         H            1.701452293961     1.463110053035     1.062335606340     1.007825032070

  Running in c1 symmetry.

  Rotational constants: A =      0.06966  B =      0.04708  C =      0.03970 [cm^-1]
  Rotational constants: A =   2088.35078  B =   1411.30804  C =   1190.29332 [MHz]
  Nuclear repulsion =  485.372452908393541

  Charge       = 0
  Multiplicity = 1
  Electrons    = 70
  Nalpha       = 35
  Nbeta        = 35

  ==> Algorithm <==

  SCF Algorithm Type is DF.
  DIIS enabled.
  MOM disabled.
  Fractional occupation disabled.
  Guess Type is SAD.
  Energy threshold   = 1.00e-10
  Density threshold  = 1.00e-10
  Integral threshold = 0.00e+00

  ==> Primary Basis <==

  Basis Set: 6-31+G(D)
    Blend: 6-31+G(D)
    Number of shells: 92
    Number of basis function: 191
    Number of Cartesian functions: 191
    Spherical Harmonics?: false
    Max angular momentum: 2

   => Loading Basis Set <=

    Name: (6-31+G(D) AUX)
    Role: JKFIT
    Keyword: DF_BASIS_SCF
    atoms 1-2                entry N          line   252 file /root/psi4conda/share/psi4/basis/heavy-aug-cc-pvdz-jkfit.gbs 
    atoms 3, 5               entry O          line   310 file /root/psi4conda/share/psi4/basis/heavy-aug-cc-pvdz-jkfit.gbs 
    atoms 4, 6-7, 11, 15     entry C          line   194 file /root/psi4conda/share/psi4/basis/heavy-aug-cc-pvdz-jkfit.gbs 
    atoms 8-10, 12-14, 16-19 entry H          line   116 file /root/psi4conda/share/psi4/basis/heavy-aug-cc-pvdz-jkfit.gbs 

  ==> Pre-Iterations <==

   -------------------------------------------------------
    Irrep   Nso     Nmo     Nalpha   Nbeta   Ndocc  Nsocc
   -------------------------------------------------------
     A        191     191       0       0       0       0
   -------------------------------------------------------
    Total     191     191      35      35      35       0
   -------------------------------------------------------

  ==> Integral Setup <==

  ==> DiskDFJK: Density-Fitted J/K Matrices <==

    J tasked:                  Yes
    K tasked:                  Yes
    wK tasked:                  No
    OpenMP threads:              1
    Integrals threads:           1
    Memory (MB):               375
    Algorithm:                Core
    Integral Cache:           NONE
    Schwarz Cutoff:          1E-12
    Fitting Condition:       1E-12

   => Auxiliary Basis Set <=

  Basis Set: (6-31+G(D) AUX)
    Blend: HEAVY-AUG-CC-PVDZ-JKFIT
    Number of shells: 342
    Number of basis function: 1159
    Number of Cartesian functions: 1159
    Spherical Harmonics?: false
    Max angular momentum: 3

  Minimum eigenvalue in the overlap matrix is 5.3272466856E-05.
  Using Symmetric Orthogonalization.

  SCF Guess: Superposition of Atomic Densities via on-the-fly atomic UHF.

  ==> Iterations <==

                           Total Energy        Delta E     RMS |[F,P]|

   @DF-RHF iter   0:  -457.09617603953183   -4.57096e+02   2.86650e-02 
   @DF-RHF iter   1:  -453.37317768922219    3.72300e+00   3.59882e-03 
   @DF-RHF iter   2:  -453.57816782646216   -2.04990e-01   2.19737e-03 DIIS
   @DF-RHF iter   3:  -453.64993411201641   -7.17663e-02   5.02045e-04 DIIS
   @DF-RHF iter   4:  -453.65713043483430   -7.19632e-03   1.83496e-04 DIIS
   @DF-RHF iter   5:  -453.65805761428413   -9.27179e-04   7.20354e-05 DIIS
   @DF-RHF iter   6:  -453.65828765725769   -2.30043e-04   2.80920e-05 DIIS
   @DF-RHF iter   7:  -453.65832349349375   -3.58362e-05   1.01836e-05 DIIS
   @DF-RHF iter   8:  -453.65832925165910   -5.75817e-06   3.81591e-06 DIIS
   @DF-RHF iter   9:  -453.65833001151026   -7.59851e-07   1.31294e-06 DIIS
   @DF-RHF iter  10:  -453.65833010057406   -8.90638e-08   4.63166e-07 DIIS
   @DF-RHF iter  11:  -453.65833011414929   -1.35752e-08   1.75988e-07 DIIS
   @DF-RHF iter  12:  -453.65833011600682   -1.85753e-09   6.33038e-08 DIIS
   @DF-RHF iter  13:  -453.65833011627154   -2.64720e-10   2.49535e-08 DIIS
   @DF-RHF iter  14:  -453.65833011631071   -3.91651e-11   1.25304e-08 DIIS
   @DF-RHF iter  15:  -453.65833011631804   -7.33280e-12   4.82772e-09 DIIS
   @DF-RHF iter  16:  -453.65833011632060   -2.55795e-12   1.67665e-09 DIIS
   @DF-RHF iter  17:  -453.65833011631946    1.13687e-12   6.56211e-10 DIIS
   @DF-RHF iter  18:  -453.65833011631855    9.09495e-13   3.08903e-10 DIIS
   @DF-RHF iter  19:  -453.65833011631935   -7.95808e-13   1.38469e-10 DIIS
   @DF-RHF iter  20:  -453.65833011632014   -7.95808e-13   5.02592e-11 DIIS

  ==> Post-Iterations <==

    Orbital Energies [Eh]
    ---------------------

    Doubly Occupied:                                                      

       1A    -20.612323     2A    -20.522910     3A    -15.698959  
       4A    -15.532878     5A    -11.382158     6A    -11.377338  
       7A    -11.293879     8A    -11.267932     9A    -11.242534  
      10A     -1.468368    11A     -1.357754    12A     -1.207799  
      13A     -1.190587    14A     -1.074871    15A     -0.975261  
      16A     -0.929282    17A     -0.835620    18A     -0.749873  
      19A     -0.722953    20A     -0.695183    21A     -0.671911  
      22A     -0.627972    23A     -0.621128    24A     -0.610237  
      25A     -0.593336    26A     -0.587461    27A     -0.584992  
      28A     -0.569686    29A     -0.541761    30A     -0.534186  
      31A     -0.491057    32A     -0.463587    33A     -0.442607  
      34A     -0.372849    35A     -0.346757  

    Virtual:                                                              

      36A      0.048138    37A      0.070495    38A      0.073048  
      39A      0.080542    40A      0.089220    41A      0.102980  
      42A      0.110925    43A      0.114898    44A      0.115482  
      45A      0.127607    46A      0.137581    47A      0.144327  
      48A      0.156453    49A      0.162103    50A      0.169103  
      51A      0.178340    52A      0.185516    53A      0.194883  
      54A      0.208222    55A      0.219023    56A      0.235994  
      57A      0.247668    58A      0.250143    59A      0.287777  
      60A      0.298980    61A      0.316611    62A      0.320154  
      63A      0.324392    64A      0.332131    65A      0.347598  
      66A      0.356986    67A      0.363206    68A      0.367898  
      69A      0.377702    70A      0.381349    71A      0.386961  
      72A      0.401957    73A      0.406023    74A      0.422102  
      75A      0.425902    76A      0.439407    77A      0.444988  
      78A      0.454813    79A      0.469468    80A      0.469684  
      81A      0.479506    82A      0.491338    83A      0.502339  
      84A      0.525968    85A      0.538528    86A      0.554997  
      87A      0.582044    88A      0.588461    89A      0.604150  
      90A      0.650233    91A      0.819472    92A      0.839097  
      93A      0.864277    94A      0.901925    95A      0.915606  
      96A      0.948007    97A      0.954346    98A      0.956980  
      99A      0.958285   100A      0.978965   101A      1.002559  
     102A      1.011657   103A      1.022197   104A      1.069589  
     105A      1.114441   106A      1.142556   107A      1.166870  
     108A      1.185523   109A      1.187843   110A      1.199396  
     111A      1.224613   112A      1.246833   113A      1.249232  
     114A      1.267566   115A      1.290114   116A      1.304469  
     117A      1.316926   118A      1.341095   119A      1.351753  
     120A      1.372904   121A      1.387469   122A      1.436796  
     123A      1.473099   124A      1.500458   125A      1.516051  
     126A      1.563176   127A      1.603644   128A      1.611137  
     129A      1.618609   130A      1.635428   131A      1.665611  
     132A      1.682256   133A      1.706717   134A      1.725220  
     135A      1.729871   136A      1.795960   137A      1.829155  
     138A      1.841711   139A      1.872634   140A      1.918209  
     141A      1.937034   142A      1.950557   143A      1.992843  
     144A      2.043172   145A      2.136533   146A      2.143169  
     147A      2.179226   148A      2.204915   149A      2.237618  
     150A      2.246619   151A      2.287911   152A      2.301785  
     153A      2.334335   154A      2.340127   155A      2.394411  
     156A      2.423377   157A      2.474062   158A      2.486009  
     159A      2.535237   160A      2.557269   161A      2.562763  
     162A      2.567663   163A      2.596799   164A      2.614657  
     165A      2.636215   166A      2.696099   167A      2.706600  
     168A      2.733104   169A      2.763023   170A      2.793526  
     171A      2.872538   172A      2.947030   173A      3.062168  
     174A      3.119796   175A      3.148679   176A      3.159129  
     177A      3.188356   178A      3.262464   179A      3.390482  
     180A      3.451243   181A      3.491043   182A      3.702264  
     183A      4.565843   184A      4.641755   185A      4.679306  
     186A      4.785224   187A      4.842031   188A      4.858950  
     189A      4.890906   190A      5.020644   191A      5.100917  

    Final Occupation by Irrep:
              A 
    DOCC [    35 ]

  Energy converged.

  @DF-RHF Final Energy:  -453.65833011632014

   => Energetics <=

    Nuclear Repulsion Energy =            485.3724529083935408
    One-Electron Energy =               -1581.6655816908289580
    Two-Electron Energy =                 642.6347986661152163
    Total Energy =                       -453.6583301163201440



Properties will be evaluated at   0.000000,   0.000000,   0.000000 [a0]

Properties computed using the SCF density matrix

  Nuclear Dipole Moment: [e a0]
     X:     2.1597      Y:     6.4920      Z:     4.9511

  Electronic Dipole Moment: [e a0]
     X:     0.0413      Y:    -4.6445      Z:    -3.6179

  Dipole Moment: [e a0]
     X:     2.2010      Y:     1.8475      Z:     1.3332     Total:     3.1678

  Dipole Moment: [D]
     X:     5.5944      Y:     4.6959      Z:     3.3887     Total:     8.0518


*** tstop() called on localhost.localdomain at Mon Jan 14 17:24:39 2019
Module time:
	user time   =      14.04 seconds =       0.23 minutes
	system time =       0.39 seconds =       0.01 minutes
	total time  =         14 seconds =       0.23 minutes
Total time:
	user time   =      65.74 seconds =       1.10 minutes
	system time =       2.28 seconds =       0.04 minutes
	total time  =         68 seconds =       1.13 minutes

  //>>>>>>>>>>>>>>>>>>>>>>>>>>>>>>>>>>>//
  //               DFMP2               //
  //<<<<<<<<<<<<<<<<<<<<<<<<<<<<<<<<<<<//

   => Loading Basis Set <=

    Name: (6-31+G(D) AUX)
    Role: RIFIT
    Keyword: DF_BASIS_MP2
    atoms 1-2                entry N          line   162 file /root/psi4conda/share/psi4/basis/heavy-aug-cc-pvdz-ri.gbs 
    atoms 3, 5               entry O          line   208 file /root/psi4conda/share/psi4/basis/heavy-aug-cc-pvdz-ri.gbs 
    atoms 4, 6-7, 11, 15     entry C          line   116 file /root/psi4conda/share/psi4/basis/heavy-aug-cc-pvdz-ri.gbs 
    atoms 8-10, 12-14, 16-19 entry H          line    44 file /root/psi4conda/share/psi4/basis/heavy-aug-cc-pvdz-ri.gbs 

	 --------------------------------------------------------
	                          DF-MP2                         
	      2nd-Order Density-Fitted Moller-Plesset Theory     
	              RMP2 Wavefunction,   1 Threads             
	                                                         
	        Rob Parrish, Justin Turney, Andy Simmonett,      
	           Ed Hohenstein, and C. David Sherrill          
	 --------------------------------------------------------

   => Auxiliary Basis Set <=

  Basis Set: (6-31+G(D) AUX)
    Blend: HEAVY-AUG-CC-PVDZ-RI
    Number of shells: 258
    Number of basis function: 788
    Number of Cartesian functions: 924
    Spherical Harmonics?: true
    Max angular momentum: 3

	 --------------------------------------------------------
	                 NBF =   191, NAUX =   788
	 --------------------------------------------------------
	   CLASS    FOCC     OCC    AOCC    AVIR     VIR    FVIR
	   PAIRS       9      35      26     156     156       0
	 --------------------------------------------------------


         ------------------------------------------------------------
                                     CPHF                           
                                  Rob Parrish                       
         ------------------------------------------------------------

  ==> Geometry <==

    Molecular point group: c1
    Full point group: C1

    Geometry (in Angstrom), charge = 0, multiplicity = 1:

       Center              X                  Y                   Z               Mass       
    ------------   -----------------  -----------------  -----------------  -----------------
         N           -0.891306642429     0.312556280202     0.643713687450    14.003074004780
         N            1.422632207516    -0.232215175609    -0.000582856444    14.003074004780
         O            0.563192724321    -0.848659011984    -0.856862084444    15.994914619560
         C           -0.961368284279    -0.568515441714    -0.301536686758    12.000000000000
         O           -1.750294009547    -1.260751477115    -0.925450602378    15.994914619560
         C            0.747724512666     1.969264048084    -0.882379057768    12.000000000000
         C            1.942817802179    -1.114625295209     1.039309964657    12.000000000000
         H            1.098925820969    -1.448829655243     1.649970932023     1.007825032070
         H            2.415230675708    -1.963420750195     0.545607261753     1.007825032070
         H            2.672239605391    -0.569170724776     1.640360552174     1.007825032070
         C           -2.172658085850     0.805391171498     1.140920525142    12.000000000000
         H           -2.939721817505     0.022043745479     1.096163119932     1.007825032070
         H           -2.051711439098     1.131856202393     2.176701645761     1.007825032070
         H           -2.522479138979     1.659383212331     0.545957468631     1.007825032070
         C            1.211637885567     1.043860350859     0.184372271731    12.000000000000
         H            0.228595091970     1.434379039912    -1.676333161096     1.007825032070
         H            0.085316687134     2.721511806739    -0.448488923286     1.007825032070
         H            1.623611507428     2.485182527464    -1.299801844788     1.007825032070
         H            1.701452293961     1.463110053035     1.062335606340     1.007825032070

  Nuclear repulsion =  485.372452908393541
  Reference energy  = -453.658330116320144

  ==> Basis Set <==

  Basis Set: 6-31+G(D)
    Blend: 6-31+G(D)
    Number of shells: 92
    Number of basis function: 191
    Number of Cartesian functions: 191
    Spherical Harmonics?: false
    Max angular momentum: 2

  ==> CGRSolver (by Rob Parrish) <==

   Number of roots    =         1
   Preconditioning    =    JACOBI
   Convergence cutoff =     1E-06
   Maximum iterations =       100

  ==> CPHFRHamiltonian (by Rob Parrish) <== 

  ==> DiskDFJK: Density-Fitted J/K Matrices <==

    J tasked:                  Yes
    K tasked:                  Yes
    wK tasked:                  No
    OpenMP threads:              1
    Integrals threads:           1
    Memory (MB):               375
    Algorithm:                Core
    Integral Cache:           NONE
    Schwarz Cutoff:          1E-12
    Fitting Condition:       1E-12

   => Auxiliary Basis Set <=

  Basis Set: (6-31+G(D) AUX)
    Blend: HEAVY-AUG-CC-PVDZ-JKFIT
    Number of shells: 342
    Number of basis function: 1159
    Number of Cartesian functions: 1159
    Spherical Harmonics?: false
    Max angular momentum: 3

  ==> CPHF Iterations <==

  => Iterations <=

             Iter  Converged  Remaining    Residual
  CGR           1          0          1   1.778E-01
  CGR           2          0          1   5.561E-02
  CGR           3          0          1   2.688E-02
  CGR           4          0          1   8.731E-03
  CGR           5          0          1   4.050E-03
  CGR           6          0          1   1.307E-03
  CGR           7          0          1   6.301E-04
  CGR           8          0          1   2.357E-04
  CGR           9          0          1   8.433E-05
  CGR          10          0          1   2.837E-05
  CGR          11          0          1   8.555E-06
  CGR          12          0          1   3.163E-06
  CGR          13          0          1   1.299E-06
  CGR          14          1          0   3.981E-07

    CGRSolver converged.

  ==> DFCorrGrad: Density-Fitted Correlated Gradients <==

    OpenMP threads:              1
    Integrals threads:           1
    Memory (MB):               375
    Schwarz Cutoff:          0E+00
    Fitting Condition:       1E-12

   => Auxiliary Basis Set <=

  Basis Set: (6-31+G(D) AUX)
    Blend: HEAVY-AUG-CC-PVDZ-JKFIT
    Number of shells: 342
    Number of basis function: 1159
    Number of Cartesian functions: 1159
    Spherical Harmonics?: false
    Max angular momentum: 3

	-----------------------------------------------------------
	 ==================> DF-MP2 Energies <==================== 
	-----------------------------------------------------------
	 Reference Energy          =    -453.6583301163201440 [Eh]
	 Singles Energy            =      -0.0000000000000000 [Eh]
	 Same-Spin Energy          =      -0.3623018920528359 [Eh]
	 Opposite-Spin Energy      =      -1.0035485269791058 [Eh]
	 Correlation Energy        =      -1.3658504190319416 [Eh]
	 Total Energy              =    -455.0241805353520590 [Eh]
	-----------------------------------------------------------
	 ================> DF-SCS-MP2 Energies <================== 
	-----------------------------------------------------------
	 SCS Same-Spin Scale       =       0.3333333333333333 [-]
	 SCS Opposite-Spin Scale   =       1.2000000000000000 [-]
	 SCS Same-Spin Energy      =      -0.1207672973509453 [Eh]
	 SCS Opposite-Spin Energy  =      -1.2042582323749269 [Eh]
	 SCS Correlation Energy    =      -1.3250255297258722 [Eh]
	 SCS Total Energy          =    -454.9833556460459931 [Eh]
	-----------------------------------------------------------


  -Total Gradient:
     Atom            X                  Y                   Z
    ------   -----------------  -----------------  -----------------
       1       -0.000534521073     0.000149904212     0.000152724151
       2        0.000102518797     0.000053522607     0.000080907051
       3       -0.000259623518    -0.000026653447    -0.000087010999
       4        0.000411631945    -0.000087463212    -0.000046503302
       5       -0.000100143966     0.000013606003     0.000002128341
       6        0.000056420705     0.000000102269    -0.000010844573
       7        0.000029468404    -0.000014671199     0.000006001887
       8        0.000002264770     0.000001845455    -0.000010141162
       9        0.000008416563     0.000003604609     0.000000629128
      10       -0.000000373561    -0.000001306954     0.000006043758
      11        0.000167627910    -0.000026118967    -0.000043112213
      12        0.000081044764    -0.000014465975    -0.000030593800
      13        0.000028925297    -0.000025814710    -0.000024652149
      14        0.000035160568    -0.000028066149    -0.000001350459
      15       -0.000026574122     0.000024443916     0.000006995608
      16       -0.000019592184    -0.000008244849    -0.000001872629
      17        0.000016313029    -0.000004127500     0.000010378897
      18        0.000003036822    -0.000015791764    -0.000010439132
      19       -0.000002001147     0.000005695657     0.000000711599


*** tstop() called on localhost.localdomain at Mon Jan 14 17:25:18 2019
Module time:
	user time   =      50.92 seconds =       0.85 minutes
	system time =       1.89 seconds =       0.03 minutes
	total time  =         53 seconds =       0.88 minutes
Total time:
	user time   =     102.62 seconds =       1.71 minutes
	system time =       3.78 seconds =       0.06 minutes
	total time  =        107 seconds =       1.78 minutes

  //>>>>>>>>>>>>>>>>>>>>>>>>>>>>>>>>>>>//
  //   Loading displacement 2 of 103   //
  //<<<<<<<<<<<<<<<<<<<<<<<<<<<<<<<<<<<//
gradient() will perform analytic gradient computation.

*** tstart() called on localhost.localdomain
*** at Mon Jan 14 17:25:18 2019

    SCF Algorithm Type (re)set to DF.

*** tstart() called on localhost.localdomain
*** at Mon Jan 14 17:25:18 2019

   => Loading Basis Set <=

    Name: 6-31+G(D)
    Role: ORBITAL
    Keyword: BASIS
    atoms 1-2                entry N          line   138 file /root/psi4conda/share/psi4/basis/6-31pg_d_.gbs 
    atoms 3, 5               entry O          line   157 file /root/psi4conda/share/psi4/basis/6-31pg_d_.gbs 
    atoms 4, 6-7, 11, 15     entry C          line   119 file /root/psi4conda/share/psi4/basis/6-31pg_d_.gbs 
    atoms 8-10, 12-14, 16-19 entry H          line    46 file /root/psi4conda/share/psi4/basis/6-31pg_d_.gbs 


         ---------------------------------------------------------
                                   SCF
            by Justin Turney, Rob Parrish, Andy Simmonett
                             and Daniel Smith
                              RHF Reference
                        1 Threads,    500 MiB Core
         ---------------------------------------------------------

  ==> Geometry <==

    Molecular point group: c1
    Full point group: C1

    Geometry (in Angstrom), charge = 0, multiplicity = 1:

       Center              X                  Y                   Z               Mass       
    ------------   -----------------  -----------------  -----------------  -----------------
         N           -0.889985199131     0.312543338812     0.643679901352    14.003074004780
         N            1.422472789320    -0.232193878765    -0.000529055638    14.003074004780
         O            0.563074834837    -0.848651103806    -0.856840325275    15.994914619560
         C           -0.961511313641    -0.568530019436    -0.301572605897    12.000000000000
         O           -1.750403140467    -1.260778246181    -0.925515857272    15.994914619560
         C            0.747565398148     1.969274703038    -0.882352057304    12.000000000000
         C            1.942632369061    -1.114595576613     1.039383924705    12.000000000000
         H            1.098722357595    -1.448812198371     1.650013263641     1.007825032070
         H            2.415076572244    -1.963384259903     0.545699559619     1.007825032070
         H            2.672023333773    -0.569129719596     1.640461693040     1.007825032070
         C           -2.172876093114     0.805359338546     1.140838076416    12.000000000000
         H           -2.939926408303     0.022000401531     1.096052215272     1.007825032070
         H           -2.051973404044     1.131826811499     2.176623559259     1.007825032070
         H           -2.522687488925     1.659345779397     0.545861303899     1.007825032070
         C            1.211452386723     1.043878601484     0.184417335039    12.000000000000
         H            0.228473933934     1.434381439004    -1.676325415460     1.007825032070
         H            0.085129944695     2.721512809113    -0.448487368368     1.007825032070
         H            1.623460413666     2.485206040916    -1.299742120040     1.007825032070
         H            1.701227400987     1.463136171867     1.062398889198     1.007825032070

  Running in c1 symmetry.

  Rotational constants: A =      0.06966  B =      0.04708  C =      0.03971 [cm^-1]
  Rotational constants: A =   2088.35640  B =   1411.45432  C =   1190.39910 [MHz]
  Nuclear repulsion =  485.376657310869007

  Charge       = 0
  Multiplicity = 1
  Electrons    = 70
  Nalpha       = 35
  Nbeta        = 35

  ==> Algorithm <==

  SCF Algorithm Type is DF.
  DIIS enabled.
  MOM disabled.
  Fractional occupation disabled.
  Guess Type is SAD.
  Energy threshold   = 1.00e-10
  Density threshold  = 1.00e-10
  Integral threshold = 0.00e+00

  ==> Primary Basis <==

  Basis Set: 6-31+G(D)
    Blend: 6-31+G(D)
    Number of shells: 92
    Number of basis function: 191
    Number of Cartesian functions: 191
    Spherical Harmonics?: false
    Max angular momentum: 2

   => Loading Basis Set <=

    Name: (6-31+G(D) AUX)
    Role: JKFIT
    Keyword: DF_BASIS_SCF
    atoms 1-2                entry N          line   252 file /root/psi4conda/share/psi4/basis/heavy-aug-cc-pvdz-jkfit.gbs 
    atoms 3, 5               entry O          line   310 file /root/psi4conda/share/psi4/basis/heavy-aug-cc-pvdz-jkfit.gbs 
    atoms 4, 6-7, 11, 15     entry C          line   194 file /root/psi4conda/share/psi4/basis/heavy-aug-cc-pvdz-jkfit.gbs 
    atoms 8-10, 12-14, 16-19 entry H          line   116 file /root/psi4conda/share/psi4/basis/heavy-aug-cc-pvdz-jkfit.gbs 

  ==> Pre-Iterations <==

   -------------------------------------------------------
    Irrep   Nso     Nmo     Nalpha   Nbeta   Ndocc  Nsocc
   -------------------------------------------------------
     A        191     191       0       0       0       0
   -------------------------------------------------------
    Total     191     191      35      35      35       0
   -------------------------------------------------------

  ==> Integral Setup <==

  ==> DiskDFJK: Density-Fitted J/K Matrices <==

    J tasked:                  Yes
    K tasked:                  Yes
    wK tasked:                  No
    OpenMP threads:              1
    Integrals threads:           1
    Memory (MB):               375
    Algorithm:                Core
    Integral Cache:           NONE
    Schwarz Cutoff:          1E-12
    Fitting Condition:       1E-12

   => Auxiliary Basis Set <=

  Basis Set: (6-31+G(D) AUX)
    Blend: HEAVY-AUG-CC-PVDZ-JKFIT
    Number of shells: 342
    Number of basis function: 1159
    Number of Cartesian functions: 1159
    Spherical Harmonics?: false
    Max angular momentum: 3

  Minimum eigenvalue in the overlap matrix is 5.3244471148E-05.
  Using Symmetric Orthogonalization.

  SCF Guess: Superposition of Atomic Densities via on-the-fly atomic UHF.

  ==> Iterations <==

                           Total Energy        Delta E     RMS |[F,P]|

   @DF-RHF iter   0:  -456.57017533968792   -4.56570e+02   2.79453e-02 
   @DF-RHF iter   1:  -453.39888211823597    3.17129e+00   3.19095e-03 
   @DF-RHF iter   2:  -453.59195786814576   -1.93076e-01   1.90212e-03 DIIS
   @DF-RHF iter   3:  -453.64613231333465   -5.41744e-02   6.10049e-04 DIIS
   @DF-RHF iter   4:  -453.65678591331044   -1.06536e-02   1.81426e-04 DIIS
   @DF-RHF iter   5:  -453.65794079507197   -1.15488e-03   8.19084e-05 DIIS
   @DF-RHF iter   6:  -453.65823475193383   -2.93957e-04   2.96174e-05 DIIS
   @DF-RHF iter   7:  -453.65828961002757   -5.48581e-05   1.23728e-05 DIIS
   @DF-RHF iter   8:  -453.65829673218400   -7.12216e-06   4.20693e-06 DIIS
   @DF-RHF iter   9:  -453.65829782602600   -1.09384e-06   1.85852e-06 DIIS
   @DF-RHF iter  10:  -453.65829802698698   -2.00961e-07   7.47709e-07 DIIS
   @DF-RHF iter  11:  -453.65829807210844   -4.51215e-08   2.87631e-07 DIIS
   @DF-RHF iter  12:  -453.65829807761645   -5.50801e-09   1.26626e-07 DIIS
   @DF-RHF iter  13:  -453.65829807844204   -8.25594e-10   4.36199e-08 DIIS
   @DF-RHF iter  14:  -453.65829807855289   -1.10845e-10   1.71997e-08 DIIS
   @DF-RHF iter  15:  -453.65829807857472   -2.18279e-11   7.78743e-09 DIIS
   @DF-RHF iter  16:  -453.65829807857727   -2.55795e-12   3.27098e-09 DIIS
   @DF-RHF iter  17:  -453.65829807857631    9.66338e-13   1.38889e-09 DIIS
   @DF-RHF iter  18:  -453.65829807857443    1.87583e-12   5.18530e-10 DIIS
   @DF-RHF iter  19:  -453.65829807857619   -1.76215e-12   2.48483e-10 DIIS
   @DF-RHF iter  20:  -453.65829807857813   -1.93268e-12   1.13249e-10 DIIS
   @DF-RHF iter  21:  -453.65829807857654    1.59162e-12   3.49360e-11 DIIS

  ==> Post-Iterations <==

    Orbital Energies [Eh]
    ---------------------

    Doubly Occupied:                                                      

       1A    -20.612183     2A    -20.523022     3A    -15.698809  
       4A    -15.533034     5A    -11.382118     6A    -11.377380  
       7A    -11.293807     8A    -11.267892     9A    -11.242672  
      10A     -1.468283    11A     -1.357797    12A     -1.207717  
      13A     -1.190450    14A     -1.074802    15A     -0.975198  
      16A     -0.929220    17A     -0.835555    18A     -0.749810  
      19A     -0.722888    20A     -0.695160    21A     -0.671821  
      22A     -0.627932    23A     -0.621051    24A     -0.610235  
      25A     -0.593275    26A     -0.587401    27A     -0.584927  
      28A     -0.569634    29A     -0.541670    30A     -0.534127  
      31A     -0.491038    32A     -0.463584    33A     -0.442740  
      34A     -0.372888    35A     -0.346895  

    Virtual:                                                              

      36A      0.048161    37A      0.070512    38A      0.073099  
      39A      0.080567    40A      0.089223    41A      0.103002  
      42A      0.110944    43A      0.114916    44A      0.115472  
      45A      0.127605    46A      0.137591    47A      0.144337  
      48A      0.156459    49A      0.162106    50A      0.169096  
      51A      0.178339    52A      0.185507    53A      0.194893  
      54A      0.208233    55A      0.219039    56A      0.236005  
      57A      0.247665    58A      0.250180    59A      0.287810  
      60A      0.298998    61A      0.316642    62A      0.320197  
      63A      0.324408    64A      0.332130    65A      0.347609  
      66A      0.357010    67A      0.363223    68A      0.367896  
      69A      0.377705    70A      0.381358    71A      0.386948  
      72A      0.401944    73A      0.406042    74A      0.422128  
      75A      0.425889    76A      0.439393    77A      0.444942  
      78A      0.454789    79A      0.469508    80A      0.469684  
      81A      0.479240    82A      0.491337    83A      0.502249  
      84A      0.525963    85A      0.538529    86A      0.554913  
      87A      0.582085    88A      0.588466    89A      0.604178  
      90A      0.649964    91A      0.819802    92A      0.839181  
      93A      0.864282    94A      0.901956    95A      0.915632  
      96A      0.947604    97A      0.954325    98A      0.956974  
      99A      0.958283   100A      0.978864   101A      1.002500  
     102A      1.011726   103A      1.022153   104A      1.069578  
     105A      1.114335   106A      1.142538   107A      1.166955  
     108A      1.185612   109A      1.187906   110A      1.199405  
     111A      1.224554   112A      1.246875   113A      1.249389  
     114A      1.267666   115A      1.290130   116A      1.304533  
     117A      1.316894   118A      1.341131   119A      1.351779  
     120A      1.372858   121A      1.387497   122A      1.436864  
     123A      1.473083   124A      1.500512   125A      1.516034  
     126A      1.563226   127A      1.603766   128A      1.611094  
     129A      1.618536   130A      1.635343   131A      1.665675  
     132A      1.682377   133A      1.706838   134A      1.725236  
     135A      1.729880   136A      1.796019   137A      1.829158  
     138A      1.841731   139A      1.872516   140A      1.918234  
     141A      1.937047   142A      1.950260   143A      1.993336  
     144A      2.043213   145A      2.136651   146A      2.143227  
     147A      2.179268   148A      2.205105   149A      2.237766  
     150A      2.246607   151A      2.287956   152A      2.301733  
     153A      2.334231   154A      2.340022   155A      2.393186  
     156A      2.423098   157A      2.474182   158A      2.485857  
     159A      2.535030   160A      2.557325   161A      2.562433  
     162A      2.567780   163A      2.596823   164A      2.614605  
     165A      2.636005   166A      2.696124   167A      2.706369  
     168A      2.733185   169A      2.762744   170A      2.793426  
     171A      2.872846   172A      2.947112   173A      3.062176  
     174A      3.119557   175A      3.148413   176A      3.159063  
     177A      3.188516   178A      3.262541   179A      3.390684  
     180A      3.450774   181A      3.490969   182A      3.702206  
     183A      4.565971   184A      4.641455   185A      4.679335  
     186A      4.785323   187A      4.842087   188A      4.859083  
     189A      4.891060   190A      5.020694   191A      5.101181  

    Final Occupation by Irrep:
              A 
    DOCC [    35 ]

  Energy converged.

  @DF-RHF Final Energy:  -453.65829807857654

   => Energetics <=

    Nuclear Repulsion Energy =            485.3766573108690068
    One-Electron Energy =               -1581.6758816265976293
    Two-Electron Energy =                 642.6409262371521436
    Total Energy =                       -453.6582980785765358



Properties will be evaluated at   0.000000,   0.000000,   0.000000 [a0]

Properties computed using the SCF density matrix

  Nuclear Dipole Moment: [e a0]
     X:     2.1579      Y:     6.4920      Z:     4.9512

  Electronic Dipole Moment: [e a0]
     X:     0.0393      Y:    -4.6442      Z:    -3.6175

  Dipole Moment: [e a0]
     X:     2.1972      Y:     1.8478      Z:     1.3337     Total:     3.1656

  Dipole Moment: [D]
     X:     5.5846      Y:     4.6967      Z:     3.3899     Total:     8.0460


*** tstop() called on localhost.localdomain at Mon Jan 14 17:25:33 2019
Module time:
	user time   =      14.62 seconds =       0.24 minutes
	system time =       0.39 seconds =       0.01 minutes
	total time  =         15 seconds =       0.25 minutes
Total time:
	user time   =     117.25 seconds =       1.95 minutes
	system time =       4.19 seconds =       0.07 minutes
	total time  =        122 seconds =       2.03 minutes

  //>>>>>>>>>>>>>>>>>>>>>>>>>>>>>>>>>>>//
  //               DFMP2               //
  //<<<<<<<<<<<<<<<<<<<<<<<<<<<<<<<<<<<//

   => Loading Basis Set <=

    Name: (6-31+G(D) AUX)
    Role: RIFIT
    Keyword: DF_BASIS_MP2
    atoms 1-2                entry N          line   162 file /root/psi4conda/share/psi4/basis/heavy-aug-cc-pvdz-ri.gbs 
    atoms 3, 5               entry O          line   208 file /root/psi4conda/share/psi4/basis/heavy-aug-cc-pvdz-ri.gbs 
    atoms 4, 6-7, 11, 15     entry C          line   116 file /root/psi4conda/share/psi4/basis/heavy-aug-cc-pvdz-ri.gbs 
    atoms 8-10, 12-14, 16-19 entry H          line    44 file /root/psi4conda/share/psi4/basis/heavy-aug-cc-pvdz-ri.gbs 

	 --------------------------------------------------------
	                          DF-MP2                         
	      2nd-Order Density-Fitted Moller-Plesset Theory     
	              RMP2 Wavefunction,   1 Threads             
	                                                         
	        Rob Parrish, Justin Turney, Andy Simmonett,      
	           Ed Hohenstein, and C. David Sherrill          
	 --------------------------------------------------------

   => Auxiliary Basis Set <=

  Basis Set: (6-31+G(D) AUX)
    Blend: HEAVY-AUG-CC-PVDZ-RI
    Number of shells: 258
    Number of basis function: 788
    Number of Cartesian functions: 924
    Spherical Harmonics?: true
    Max angular momentum: 3

	 --------------------------------------------------------
	                 NBF =   191, NAUX =   788
	 --------------------------------------------------------
	   CLASS    FOCC     OCC    AOCC    AVIR     VIR    FVIR
	   PAIRS       9      35      26     156     156       0
	 --------------------------------------------------------


         ------------------------------------------------------------
                                     CPHF                           
                                  Rob Parrish                       
         ------------------------------------------------------------

  ==> Geometry <==

    Molecular point group: c1
    Full point group: C1

    Geometry (in Angstrom), charge = 0, multiplicity = 1:

       Center              X                  Y                   Z               Mass       
    ------------   -----------------  -----------------  -----------------  -----------------
         N           -0.889985199131     0.312543338812     0.643679901352    14.003074004780
         N            1.422472789320    -0.232193878765    -0.000529055638    14.003074004780
         O            0.563074834837    -0.848651103806    -0.856840325275    15.994914619560
         C           -0.961511313641    -0.568530019436    -0.301572605897    12.000000000000
         O           -1.750403140467    -1.260778246181    -0.925515857272    15.994914619560
         C            0.747565398148     1.969274703038    -0.882352057304    12.000000000000
         C            1.942632369061    -1.114595576613     1.039383924705    12.000000000000
         H            1.098722357595    -1.448812198371     1.650013263641     1.007825032070
         H            2.415076572244    -1.963384259903     0.545699559619     1.007825032070
         H            2.672023333773    -0.569129719596     1.640461693040     1.007825032070
         C           -2.172876093114     0.805359338546     1.140838076416    12.000000000000
         H           -2.939926408303     0.022000401531     1.096052215272     1.007825032070
         H           -2.051973404044     1.131826811499     2.176623559259     1.007825032070
         H           -2.522687488925     1.659345779397     0.545861303899     1.007825032070
         C            1.211452386723     1.043878601484     0.184417335039    12.000000000000
         H            0.228473933934     1.434381439004    -1.676325415460     1.007825032070
         H            0.085129944695     2.721512809113    -0.448487368368     1.007825032070
         H            1.623460413666     2.485206040916    -1.299742120040     1.007825032070
         H            1.701227400987     1.463136171867     1.062398889198     1.007825032070

  Nuclear repulsion =  485.376657310869007
  Reference energy  = -453.658298078576536

  ==> Basis Set <==

  Basis Set: 6-31+G(D)
    Blend: 6-31+G(D)
    Number of shells: 92
    Number of basis function: 191
    Number of Cartesian functions: 191
    Spherical Harmonics?: false
    Max angular momentum: 2

  ==> CGRSolver (by Rob Parrish) <==

   Number of roots    =         1
   Preconditioning    =    JACOBI
   Convergence cutoff =     1E-06
   Maximum iterations =       100

  ==> CPHFRHamiltonian (by Rob Parrish) <== 

  ==> DiskDFJK: Density-Fitted J/K Matrices <==

    J tasked:                  Yes
    K tasked:                  Yes
    wK tasked:                  No
    OpenMP threads:              1
    Integrals threads:           1
    Memory (MB):               375
    Algorithm:                Core
    Integral Cache:           NONE
    Schwarz Cutoff:          1E-12
    Fitting Condition:       1E-12

   => Auxiliary Basis Set <=

  Basis Set: (6-31+G(D) AUX)
    Blend: HEAVY-AUG-CC-PVDZ-JKFIT
    Number of shells: 342
    Number of basis function: 1159
    Number of Cartesian functions: 1159
    Spherical Harmonics?: false
    Max angular momentum: 3

  ==> CPHF Iterations <==

  => Iterations <=

             Iter  Converged  Remaining    Residual
  CGR           1          0          1   1.778E-01
  CGR           2          0          1   5.561E-02
  CGR           3          0          1   2.689E-02
  CGR           4          0          1   8.735E-03
  CGR           5          0          1   4.054E-03
  CGR           6          0          1   1.308E-03
  CGR           7          0          1   6.306E-04
  CGR           8          0          1   2.356E-04
  CGR           9          0          1   8.430E-05
  CGR          10          0          1   2.836E-05
  CGR          11          0          1   8.550E-06
  CGR          12          0          1   3.159E-06
  CGR          13          0          1   1.298E-06
  CGR          14          1          0   3.980E-07

    CGRSolver converged.

  ==> DFCorrGrad: Density-Fitted Correlated Gradients <==

    OpenMP threads:              1
    Integrals threads:           1
    Memory (MB):               375
    Schwarz Cutoff:          0E+00
    Fitting Condition:       1E-12

   => Auxiliary Basis Set <=

  Basis Set: (6-31+G(D) AUX)
    Blend: HEAVY-AUG-CC-PVDZ-JKFIT
    Number of shells: 342
    Number of basis function: 1159
    Number of Cartesian functions: 1159
    Spherical Harmonics?: false
    Max angular momentum: 3

	-----------------------------------------------------------
	 ==================> DF-MP2 Energies <==================== 
	-----------------------------------------------------------
	 Reference Energy          =    -453.6582980785765358 [Eh]
	 Singles Energy            =      -0.0000000000000000 [Eh]
	 Same-Spin Energy          =      -0.3623094090284992 [Eh]
	 Opposite-Spin Energy      =      -1.0035729606774626 [Eh]
	 Correlation Energy        =      -1.3658823697059619 [Eh]
	 Total Energy              =    -455.0241804482824932 [Eh]
	-----------------------------------------------------------
	 ================> DF-SCS-MP2 Energies <================== 
	-----------------------------------------------------------
	 SCS Same-Spin Scale       =       0.3333333333333333 [-]
	 SCS Opposite-Spin Scale   =       1.2000000000000000 [-]
	 SCS Same-Spin Energy      =      -0.1207698030094997 [Eh]
	 SCS Opposite-Spin Energy  =      -1.2042875528129551 [Eh]
	 SCS Correlation Energy    =      -1.3250573558224548 [Eh]
	 SCS Total Energy          =    -454.9833554343990158 [Eh]
	-----------------------------------------------------------


  -Total Gradient:
     Atom            X                  Y                   Z
    ------   -----------------  -----------------  -----------------
       1        0.000599200264    -0.000057200143    -0.000116545766
       2       -0.000015988217     0.000095817152     0.000141025647
       3       -0.000318835816     0.000020219249    -0.000014343759
       4        0.000119842118    -0.000047407115     0.000005792990
       5       -0.000087771094    -0.000085520609    -0.000098481021
       6        0.000034452683    -0.000013779450    -0.000003070772
       7        0.000038355925    -0.000023105315     0.000012014221
       8        0.000001553832     0.000002542748    -0.000013975981
       9        0.000007109925     0.000003092812    -0.000000109000
      10       -0.000001654125    -0.000000740135     0.000005024609
      11       -0.000365851406     0.000065147220     0.000062009853
      12       -0.000011479090     0.000017262766     0.000001636556
      13        0.000014266570    -0.000015445079    -0.000013885458
      14       -0.000018533484     0.000000897646     0.000017387788
      15        0.000005372296     0.000060708590     0.000019423145
      16       -0.000021699961    -0.000005466089    -0.000002797353
      17        0.000015919161    -0.000004119856     0.000008680735
      18        0.000004172086    -0.000017646436    -0.000008011350
      19        0.000001568335     0.000004742045    -0.000001775073


*** tstop() called on localhost.localdomain at Mon Jan 14 17:26:11 2019
Module time:
	user time   =      51.77 seconds =       0.86 minutes
	system time =       1.85 seconds =       0.03 minutes
	total time  =         53 seconds =       0.88 minutes
Total time:
	user time   =     154.40 seconds =       2.57 minutes
	system time =       5.65 seconds =       0.09 minutes
	total time  =        160 seconds =       2.67 minutes

  //>>>>>>>>>>>>>>>>>>>>>>>>>>>>>>>>>>>//
  //   Loading displacement 3 of 103   //
  //<<<<<<<<<<<<<<<<<<<<<<<<<<<<<<<<<<<//
gradient() will perform analytic gradient computation.

*** tstart() called on localhost.localdomain
*** at Mon Jan 14 17:26:11 2019

    SCF Algorithm Type (re)set to DF.

*** tstart() called on localhost.localdomain
*** at Mon Jan 14 17:26:11 2019

   => Loading Basis Set <=

    Name: 6-31+G(D)
    Role: ORBITAL
    Keyword: BASIS
    atoms 1-2                entry N          line   138 file /root/psi4conda/share/psi4/basis/6-31pg_d_.gbs 
    atoms 3, 5               entry O          line   157 file /root/psi4conda/share/psi4/basis/6-31pg_d_.gbs 
    atoms 4, 6-7, 11, 15     entry C          line   119 file /root/psi4conda/share/psi4/basis/6-31pg_d_.gbs 
    atoms 8-10, 12-14, 16-19 entry H          line    46 file /root/psi4conda/share/psi4/basis/6-31pg_d_.gbs 


         ---------------------------------------------------------
                                   SCF
            by Justin Turney, Rob Parrish, Andy Simmonett
                             and Daniel Smith
                              RHF Reference
                        1 Threads,    500 MiB Core
         ---------------------------------------------------------

  ==> Geometry <==

    Molecular point group: c1
    Full point group: C1

    Geometry (in Angstrom), charge = 0, multiplicity = 1:

       Center              X                  Y                   Z               Mass       
    ------------   -----------------  -----------------  -----------------  -----------------
         N           -0.890645920780     0.311901015412     0.643687262508    14.003074004780
         N            1.422548014860    -0.232154034618    -0.000548407764    14.003074004780
         O            0.563115760738    -0.848609580909    -0.856826461189    15.994914619560
         C           -0.961451768916    -0.568426515462    -0.301538891403    12.000000000000
         O           -1.750375951490    -1.260668589982    -0.925448057300    15.994914619560
         C            0.747691225750     1.969309910544    -0.882421714118    12.000000000000
         C            1.942699837577    -1.114541911358     1.039380180591    12.000000000000
         H            1.098790843739    -1.448715598231     1.650034424444     1.007825032070
         H            2.415109318804    -1.963358949390     0.545711338570     1.007825032070
         H            2.672118294168    -0.569081054343     1.640429124301     1.007825032070
         C           -2.172748607193     0.805540568085     1.140854814070    12.000000000000
         H           -2.939823470515     0.022203595080     1.096105231278     1.007825032070
         H           -2.051817128291     1.132033839932     2.176628804289     1.007825032070
         H           -2.522544988237     1.659520682839     0.545860133375     1.007825032070
         C            1.211569644887     1.043930098779     0.184365535969    12.000000000000
         H            0.228569070099     1.434409788817    -1.676370385566     1.007825032070
         H            0.085286477904     2.721580425649    -0.448566335196     1.007825032070
         H            1.623594254554     2.485202840979    -1.299842434243     1.007825032070
         H            1.701373380374     1.463197804535     1.062326227520     1.007825032070

  Running in c1 symmetry.

  Rotational constants: A =      0.06966  B =      0.04708  C =      0.03971 [cm^-1]
  Rotational constants: A =   2088.41755  B =   1411.37206  C =   1190.36868 [MHz]
  Nuclear repulsion =  485.381572753184969

  Charge       = 0
  Multiplicity = 1
  Electrons    = 70
  Nalpha       = 35
  Nbeta        = 35

  ==> Algorithm <==

  SCF Algorithm Type is DF.
  DIIS enabled.
  MOM disabled.
  Fractional occupation disabled.
  Guess Type is SAD.
  Energy threshold   = 1.00e-10
  Density threshold  = 1.00e-10
  Integral threshold = 0.00e+00

  ==> Primary Basis <==

  Basis Set: 6-31+G(D)
    Blend: 6-31+G(D)
    Number of shells: 92
    Number of basis function: 191
    Number of Cartesian functions: 191
    Spherical Harmonics?: false
    Max angular momentum: 2

   => Loading Basis Set <=

    Name: (6-31+G(D) AUX)
    Role: JKFIT
    Keyword: DF_BASIS_SCF
    atoms 1-2                entry N          line   252 file /root/psi4conda/share/psi4/basis/heavy-aug-cc-pvdz-jkfit.gbs 
    atoms 3, 5               entry O          line   310 file /root/psi4conda/share/psi4/basis/heavy-aug-cc-pvdz-jkfit.gbs 
    atoms 4, 6-7, 11, 15     entry C          line   194 file /root/psi4conda/share/psi4/basis/heavy-aug-cc-pvdz-jkfit.gbs 
    atoms 8-10, 12-14, 16-19 entry H          line   116 file /root/psi4conda/share/psi4/basis/heavy-aug-cc-pvdz-jkfit.gbs 

  ==> Pre-Iterations <==

   -------------------------------------------------------
    Irrep   Nso     Nmo     Nalpha   Nbeta   Ndocc  Nsocc
   -------------------------------------------------------
     A        191     191       0       0       0       0
   -------------------------------------------------------
    Total     191     191      35      35      35       0
   -------------------------------------------------------

  ==> Integral Setup <==

  ==> DiskDFJK: Density-Fitted J/K Matrices <==

    J tasked:                  Yes
    K tasked:                  Yes
    wK tasked:                  No
    OpenMP threads:              1
    Integrals threads:           1
    Memory (MB):               375
    Algorithm:                Core
    Integral Cache:           NONE
    Schwarz Cutoff:          1E-12
    Fitting Condition:       1E-12

   => Auxiliary Basis Set <=

  Basis Set: (6-31+G(D) AUX)
    Blend: HEAVY-AUG-CC-PVDZ-JKFIT
    Number of shells: 342
    Number of basis function: 1159
    Number of Cartesian functions: 1159
    Spherical Harmonics?: false
    Max angular momentum: 3

  Minimum eigenvalue in the overlap matrix is 5.3275862618E-05.
  Using Symmetric Orthogonalization.

[...]
     12   H               -0.02  0.02  0.02    0.04 -0.05 -0.03    0.39 -0.39 -0.25   
     13   H               -0.01  0.00 -0.00    0.08 -0.01 -0.01    0.56 -0.08 -0.02   
     14   H               -0.01  0.00  0.01    0.06 -0.00 -0.04    0.44  0.00 -0.28   
     15   C                0.03 -0.00  0.05   -0.00  0.02 -0.01    0.00  0.00 -0.00   
     16   H                0.05 -0.41  0.19    0.01  0.01 -0.01    0.04 -0.07  0.00   
     17   H               -0.05 -0.24  0.47    0.05  0.06 -0.04    0.07  0.03  0.05   
     18   H                0.35 -0.32  0.24   -0.05  0.07 -0.00   -0.00  0.02  0.03   
     19   H               -0.09  0.35 -0.04    0.01 -0.04  0.01   -0.00 -0.01  0.01   

  Vibration                       40                  41                  42          
  Freq [cm^-1]                1514.3107           1518.3895           1519.7027       
  Irrep                           A                   A                   A           
  Reduced mass [u]              1.0644              1.0481              1.0471        
  Force const [mDyne/A]         1.4381              1.4236              1.4249        
  Turning point v=0 [a0]        0.2733              0.2751              0.2751        
  RMS dev v=0 [a0 u^1/2]        0.1994              0.1991              0.1990        
  Char temp [K]               2178.7526           2184.6211           2186.5104       
  ----------------------------------------------------------------------------------
      1   N               -0.00  0.00  0.00    0.00 -0.00 -0.00    0.00  0.00 -0.00   
      2   N                0.00 -0.03  0.01   -0.01  0.01  0.01   -0.01  0.02  0.00   
      3   O                0.00  0.00  0.00   -0.00 -0.00 -0.00   -0.00 -0.00 -0.00   
      4   C                0.00 -0.00 -0.00   -0.00 -0.00  0.00   -0.00 -0.00  0.00   
      5   O               -0.00  0.00  0.00    0.00  0.00  0.00    0.00  0.00  0.00   
      6   C               -0.03 -0.03 -0.02    0.03 -0.00  0.00   -0.03  0.02  0.04   
      7   C               -0.00  0.02  0.02   -0.04  0.02  0.02   -0.02  0.00  0.01   
      8   H               -0.13 -0.13 -0.24   -0.22 -0.13 -0.33   -0.09 -0.02 -0.11   
      9   H                0.02 -0.03  0.11    0.30  0.03  0.31    0.17  0.03  0.13   
     10   H                0.19 -0.00 -0.20    0.45 -0.20 -0.36    0.19 -0.11 -0.14   
     11   C                0.01 -0.00 -0.01   -0.00  0.00  0.00    0.00  0.00 -0.00   
     12   H               -0.03  0.03  0.09    0.01 -0.01 -0.05   -0.01  0.01  0.02   
     13   H               -0.09 -0.02  0.01    0.04  0.02 -0.01   -0.01 -0.04  0.01   
     14   H               -0.01  0.01  0.03   -0.01 -0.01 -0.00   -0.00 -0.02 -0.02   
     15   C               -0.02  0.02 -0.01    0.00  0.01 -0.01   -0.01 -0.00  0.01   
     16   H                0.18 -0.35  0.07   -0.30  0.14  0.12    0.52  0.08 -0.37   
     17   H                0.49  0.38  0.09   -0.24 -0.13 -0.18    0.06 -0.09  0.31   
     18   H               -0.19  0.42  0.17    0.11 -0.07  0.12   -0.11 -0.26 -0.50   
     19   H                0.02 -0.02 -0.01   -0.00 -0.03  0.01    0.04 -0.00 -0.02   

  Vibration                       43                  44                  45          
  Freq [cm^-1]                1537.0516           1539.8459           1546.2795       
  Irrep                           A                   A                   A           
  Reduced mass [u]              1.0498              1.0597              1.0505        
  Force const [mDyne/A]         1.4613              1.4804              1.4798        
  Turning point v=0 [a0]        0.2732              0.2716              0.2723        
  RMS dev v=0 [a0 u^1/2]        0.1979              0.1977              0.1973        
  Char temp [K]               2211.4717           2215.4921           2224.7485       
  ----------------------------------------------------------------------------------
      1   N               -0.01  0.01 -0.01   -0.00  0.00  0.00   -0.00 -0.02 -0.01   
      2   N               -0.01 -0.00 -0.00   -0.02 -0.02 -0.02    0.00  0.00  0.01   
      3   O                0.00  0.00  0.00    0.00  0.00  0.00   -0.00 -0.00 -0.00   
      4   C                0.00 -0.00 -0.00    0.00 -0.00 -0.00   -0.01 -0.00 -0.00   
      5   O               -0.00  0.00  0.00   -0.00 -0.00  0.00    0.01  0.01  0.00   
      6   C                0.00  0.00 -0.00   -0.01  0.01 -0.01   -0.00  0.00  0.00   
      7   C               -0.01 -0.01 -0.01   -0.03 -0.02 -0.02    0.00  0.00  0.00   
      8   H               -0.01  0.12  0.07   -0.04  0.50  0.24    0.00 -0.07 -0.04   
      9   H                0.13  0.09 -0.02    0.49  0.34 -0.12   -0.06 -0.05  0.02   
     10   H                0.03 -0.10  0.04    0.09 -0.37  0.17   -0.01  0.05 -0.03   
     11   C               -0.01  0.03 -0.05    0.00 -0.02  0.01   -0.02 -0.04 -0.03   
     12   H                0.14 -0.16  0.64   -0.00 -0.00 -0.14    0.26 -0.29  0.07   
     13   H               -0.34 -0.41  0.15    0.05  0.18 -0.06   -0.20  0.52 -0.16   
     14   H                0.39  0.10 -0.13   -0.06  0.04  0.11    0.24  0.43  0.49   
     15   C                0.00 -0.01  0.00    0.01 -0.02  0.01   -0.00  0.00 -0.00   
     16   H               -0.05  0.01  0.03    0.02 -0.11  0.05    0.02  0.02 -0.02   
     17   H               -0.04 -0.02 -0.03    0.09  0.07  0.02   -0.01 -0.02  0.02   
     18   H                0.02 -0.01  0.03   -0.01  0.08  0.06    0.00 -0.03 -0.03   
     19   H               -0.01  0.03 -0.01   -0.04  0.14 -0.03    0.01 -0.03  0.01   

  Vibration                       46                  47                  48          
  Freq [cm^-1]                1724.2319           1923.9574           3062.0625       
  Irrep                           A                   A                   A           
  Reduced mass [u]              5.7578             11.5986              1.0337        
  Force const [mDyne/A]        10.0856             25.2956              5.7108        
  Turning point v=0 [a0]        0.1101              0.0735              0.1950        
  RMS dev v=0 [a0 u^1/2]        0.1869              0.1769              0.1402        
  Char temp [K]               2480.7821           2768.1421           4405.6194       
  ----------------------------------------------------------------------------------
      1   N               -0.00  0.00  0.00    0.02 -0.21 -0.20    0.00 -0.00 -0.00   
      2   N                0.05 -0.39  0.01   -0.00  0.01  0.01    0.00 -0.00 -0.00   
      3   O                0.01  0.02 -0.00   -0.00 -0.02 -0.02    0.00 -0.00 -0.00   
      4   C               -0.00  0.00  0.00    0.35  0.54  0.51    0.00  0.00  0.00   
      5   O               -0.00 -0.00 -0.00   -0.23 -0.22 -0.19   -0.00 -0.00 -0.00   
      6   C                0.01 -0.06  0.04    0.01  0.00  0.00    0.00  0.00 -0.00   
      7   C                0.00  0.04 -0.02   -0.00 -0.00 -0.00    0.00  0.00  0.00   
      8   H               -0.09  0.19 -0.05   -0.00  0.03  0.01    0.00  0.00 -0.00   
      9   H               -0.03  0.16 -0.27    0.02  0.01  0.00   -0.00  0.00  0.00   
     10   H               -0.02 -0.06  0.10    0.00 -0.01 -0.01   -0.00 -0.00 -0.00   
     11   C                0.00 -0.01 -0.00   -0.01  0.01 -0.01    0.04 -0.02  0.00   
     12   H               -0.03  0.02  0.03   -0.07  0.10  0.10   -0.41 -0.44 -0.02   
     13   H               -0.01 -0.01 -0.00   -0.18  0.01 -0.00    0.05  0.11  0.37   
     14   H                0.01 -0.00  0.00   -0.16  0.02  0.14   -0.20  0.54 -0.39   
     15   C               -0.09  0.48 -0.04   -0.02 -0.01 -0.00   -0.00 -0.00  0.00   
     16   H               -0.02  0.21 -0.12    0.00 -0.01  0.00   -0.00 -0.00 -0.00   
     17   H               -0.07 -0.18  0.12   -0.01 -0.01  0.01   -0.00  0.00  0.00   
     18   H                0.07 -0.20  0.00   -0.01 -0.00 -0.01   -0.01 -0.00  0.00   
     19   H                0.19 -0.40  0.27   -0.00 -0.01 -0.02   -0.00  0.00 -0.00   

  Vibration                       49                  50                  51          
  Freq [cm^-1]                3085.3110           3113.7734           3135.8333       
  Irrep                           A                   A                   A           
  Reduced mass [u]              1.0464              1.0319              1.1037        
  Force const [mDyne/A]         5.8689              5.8946              6.3944        
  Turning point v=0 [a0]        0.1931              0.1936              0.1865        
  RMS dev v=0 [a0 u^1/2]        0.1397              0.1390              0.1386        
  Char temp [K]               4439.0688           4480.0198           4511.7591       
  ----------------------------------------------------------------------------------
      1   N                0.00 -0.00 -0.00    0.00  0.00 -0.00   -0.00  0.00 -0.00   
      2   N                0.00  0.00  0.00    0.00 -0.00  0.00   -0.00 -0.00 -0.00   
      3   O                0.00  0.00 -0.00   -0.00 -0.00 -0.00    0.00 -0.00  0.00   
      4   C                0.00  0.00  0.00    0.00 -0.00 -0.00   -0.00  0.00 -0.00   
      5   O               -0.00 -0.00 -0.00    0.00  0.00  0.00    0.00 -0.00  0.00   
      6   C               -0.03 -0.04  0.03    0.00 -0.00  0.00    0.00 -0.00 -0.00   
      7   C                0.00 -0.00 -0.00    0.00 -0.02  0.04   -0.00 -0.00  0.00   
      8   H               -0.00 -0.00  0.00    0.55  0.22 -0.39    0.00  0.00 -0.00   
      9   H               -0.00  0.00  0.00   -0.20  0.35  0.21    0.00 -0.00 -0.00   
     10   H                0.00  0.00  0.00   -0.36 -0.27 -0.29    0.00  0.00  0.00   
     11   C                0.00 -0.00  0.00   -0.00  0.00 -0.00   -0.02 -0.08  0.04   
     12   H               -0.00 -0.00  0.00    0.00  0.00  0.00    0.49  0.50  0.04   
     13   H               -0.00  0.00  0.00   -0.00  0.00  0.00   -0.02 -0.07 -0.14   
     14   H               -0.00  0.00 -0.00    0.00 -0.00  0.00   -0.21  0.53 -0.38   
     15   C               -0.00  0.00  0.00   -0.00  0.00 -0.00   -0.00  0.00  0.00   
     16   H               -0.16 -0.16 -0.22    0.00  0.00  0.00   -0.00 -0.00 -0.00   
     17   H               -0.23  0.24  0.15    0.00 -0.00  0.00   -0.00  0.01  0.00   
     18   H                0.70  0.41 -0.33    0.00  0.00  0.00   -0.00 -0.00  0.00   
     19   H               -0.01 -0.01 -0.01    0.01  0.01  0.02    0.00  0.00  0.00   

  Vibration                       52                  53                  54          
  Freq [cm^-1]                3180.6120           3183.0133           3216.9461       
  Irrep                           A                   A                   A           
  Reduced mass [u]              1.1022              1.0893              1.1037        
  Force const [mDyne/A]         6.5698              6.5025              6.7297        
  Turning point v=0 [a0]        0.1853              0.1863              0.1841        
  RMS dev v=0 [a0 u^1/2]        0.1376              0.1375              0.1368        
  Char temp [K]               4576.1855           4579.6405           4628.4622       
  ----------------------------------------------------------------------------------
      1   N               -0.00 -0.00  0.00   -0.00  0.00  0.00    0.00 -0.00 -0.00   
      2   N                0.00 -0.00 -0.00    0.00  0.00  0.00    0.00 -0.00  0.00   
      3   O                0.00  0.00  0.00   -0.00  0.00 -0.00   -0.00 -0.00 -0.00   
      4   C               -0.00  0.00 -0.00    0.00 -0.00 -0.00    0.00 -0.00 -0.00   
      5   O                0.00  0.00  0.00    0.00  0.00  0.00   -0.00 -0.00  0.00   
      6   C               -0.01  0.00  0.00    0.08 -0.02 -0.02   -0.00 -0.00 -0.01   
      7   C               -0.00  0.00 -0.00   -0.00 -0.00 -0.00   -0.08 -0.02  0.01   
      8   H                0.00  0.00 -0.00    0.00 -0.00 -0.00    0.49  0.19 -0.36   
      9   H                0.00 -0.00 -0.00   -0.00  0.00  0.00    0.11 -0.24 -0.14   
     10   H                0.00  0.00  0.00    0.00  0.00  0.00    0.39  0.31  0.33   
     11   C               -0.03 -0.03 -0.08   -0.00 -0.00 -0.01    0.00  0.00  0.00   
     12   H                0.25  0.27 -0.00    0.01  0.02 -0.00   -0.00 -0.00 -0.00   
     13   H                0.12  0.26  0.86    0.01  0.02  0.05   -0.00 -0.00 -0.00   
     14   H                0.04 -0.14  0.08    0.01 -0.02  0.01    0.00 -0.00  0.00   
     15   C               -0.00  0.00  0.00    0.00 -0.00 -0.00    0.01  0.01  0.03   
     16   H                0.01  0.01  0.02   -0.16 -0.19 -0.28    0.03  0.03  0.05   
     17   H                0.03 -0.04 -0.02   -0.48  0.56  0.33   -0.02  0.02  0.01   
     18   H                0.02  0.01 -0.01   -0.35 -0.21  0.16    0.00 -0.00 -0.00   
     19   H               -0.00 -0.00 -0.00    0.00  0.00  0.01   -0.17 -0.14 -0.30   

  Vibration                       55                  56                  57          
  Freq [cm^-1]                3224.5558           3244.1153           3246.4927       
  Irrep                           A                   A                   A           
  Reduced mass [u]              1.0947              1.1060              1.1024        
  Force const [mDyne/A]         6.7065              6.8581              6.8457        
  Turning point v=0 [a0]        0.1847              0.1832              0.1834        
  RMS dev v=0 [a0 u^1/2]        0.1366              0.1362              0.1362        
  Char temp [K]               4639.4108           4667.5525           4670.9731       
  ----------------------------------------------------------------------------------
      1   N               -0.00  0.00  0.00   -0.00  0.00  0.00   -0.00  0.00  0.00   
      2   N               -0.00  0.00 -0.00   -0.00 -0.00  0.00   -0.00  0.00 -0.00   
      3   O                0.00  0.00  0.00    0.00  0.00  0.00    0.00  0.00  0.00   
      4   C                0.00  0.00  0.00    0.00 -0.00 -0.00    0.00  0.00  0.00   
      5   O               -0.00 -0.00 -0.00    0.00  0.00  0.00   -0.00 -0.00 -0.00   
      6   C                0.01  0.02  0.02    0.01  0.03  0.03   -0.02 -0.05 -0.05   
      7   C               -0.03  0.00  0.01    0.01 -0.07 -0.05   -0.00 -0.03 -0.03   
      8   H                0.20  0.08 -0.14   -0.07 -0.04  0.04   -0.01 -0.01  0.00   
      9   H                0.10 -0.19 -0.11   -0.32  0.57  0.34   -0.15  0.26  0.15   
     10   H                0.12  0.10  0.10    0.33  0.25  0.26    0.18  0.14  0.15   
     11   C                0.00  0.00 -0.00   -0.00 -0.00  0.00   -0.00 -0.00  0.00   
     12   H               -0.00 -0.00  0.00    0.00  0.00  0.00   -0.00 -0.00  0.00   
     13   H               -0.00  0.00  0.00   -0.00  0.00  0.00   -0.00  0.00  0.00   
     14   H                0.00 -0.00  0.00   -0.00  0.00 -0.00    0.00  0.00 -0.00   
     15   C               -0.03 -0.03 -0.06    0.00  0.00  0.00   -0.01 -0.01 -0.02   
     16   H               -0.12 -0.13 -0.18   -0.19 -0.19 -0.29    0.36  0.36  0.54   
     17   H                0.08 -0.09 -0.05    0.13 -0.14 -0.08   -0.24  0.26  0.15   
     18   H               -0.01 -0.00  0.01   -0.04 -0.02  0.02    0.08  0.04 -0.05   
     19   H                0.39  0.33  0.70   -0.01 -0.01 -0.02    0.14  0.12  0.26   

  ==> Thermochemistry Components <==

  Entropy, S
    Electronic S            0.000 [cal/(mol K)]        0.000 [J/(mol K)]       0.00000000 [mEh/K] (multiplicity = 1)
    Translational S        40.502 [cal/(mol K)]      169.460 [J/(mol K)]       0.06454374 [mEh/K] (mol. weight = 130.0742 [u], P = 101325.00 [Pa])
    Rotational S           28.906 [cal/(mol K)]      120.944 [J/(mol K)]       0.04606523 [mEh/K] (symmetry no. = 1)
    Vibrational S          28.184 [cal/(mol K)]      117.921 [J/(mol K)]       0.04491378 [mEh/K]
  Total S                  97.592 [cal/(mol K)]      408.325 [J/(mol K)]       0.15552276 [mEh/K]
  Correction S              0.000 [cal/(mol K)]        0.000 [J/(mol K)]       0.00000000 [mEh/K]

  Constant volume heat capacity, Cv
    Electronic Cv           0.000 [cal/(mol K)]        0.000 [J/(mol K)]       0.00000000 [mEh/K]
    Translational Cv        2.981 [cal/(mol K)]       12.472 [J/(mol K)]       0.00475022 [mEh/K]
    Rotational Cv           2.981 [cal/(mol K)]       12.472 [J/(mol K)]       0.00475022 [mEh/K]
    Vibrational Cv         28.925 [cal/(mol K)]      121.020 [J/(mol K)]       0.04609423 [mEh/K]
  Total Cv                 34.886 [cal/(mol K)]      145.964 [J/(mol K)]       0.05559467 [mEh/K]
  Correction Cv             0.000 [cal/(mol K)]        0.000 [J/(mol K)]       0.00000000 [mEh/K]

  Constant pressure heat capacity, Cp
    Electronic Cp           0.000 [cal/(mol K)]        0.000 [J/(mol K)]       0.00000000 [mEh/K]
    Translational Cp        4.968 [cal/(mol K)]       20.786 [J/(mol K)]       0.00791704 [mEh/K]
    Rotational Cp           2.981 [cal/(mol K)]       12.472 [J/(mol K)]       0.00475022 [mEh/K]
    Vibrational Cp         28.925 [cal/(mol K)]      121.020 [J/(mol K)]       0.04609423 [mEh/K]
  Total Cp                 36.873 [cal/(mol K)]      154.278 [J/(mol K)]       0.05876149 [mEh/K]
  Correction Cp             0.000 [cal/(mol K)]        0.000 [J/(mol K)]       0.00000000 [mEh/K]

  ==> Thermochemistry Energy Analysis <==

  Raw electronic energy, E0
  Total E0, Electronic energy at well bottom at 0 [K]                 -455.02418090 [Eh]

  Zero-point energy, ZPE_vib = Sum_i nu_i / 2
    Electronic ZPE          0.000 [kcal/mol]        0.000 [kJ/mol]       0.00000000 [Eh]
    Translational ZPE       0.000 [kcal/mol]        0.000 [kJ/mol]       0.00000000 [Eh]
    Rotational ZPE          0.000 [kcal/mol]        0.000 [kJ/mol]       0.00000000 [Eh]
    Vibrational ZPE        98.831 [kcal/mol]      413.508 [kJ/mol]       0.15749676 [Eh]       34566.539 [cm^-1]
  Correction ZPE           98.831 [kcal/mol]      413.508 [kJ/mol]       0.15749676 [Eh]       34566.539 [cm^-1]
  Total ZPE, Electronic energy at 0 [K]                               -454.86668414 [Eh]

  Thermal Energy, E (includes ZPE)
    Electronic E            0.000 [kcal/mol]        0.000 [kJ/mol]       0.00000000 [Eh]
    Translational E         0.889 [kcal/mol]        3.718 [kJ/mol]       0.00141628 [Eh]
    Rotational E            0.889 [kcal/mol]        3.718 [kJ/mol]       0.00141628 [Eh]
    Vibrational E         103.367 [kcal/mol]      432.487 [kJ/mol]       0.16472563 [Eh]
  Correction E            105.144 [kcal/mol]      439.924 [kJ/mol]       0.16755819 [Eh]
  Total E, Electronic energy at  298.15 [K]                           -454.85662271 [Eh]

  Enthalpy, H_trans = E_trans + k_B * T
    Electronic H            0.000 [kcal/mol]        0.000 [kJ/mol]       0.00000000 [Eh]
    Translational H         1.481 [kcal/mol]        6.197 [kJ/mol]       0.00236046 [Eh]
    Rotational H            0.889 [kcal/mol]        3.718 [kJ/mol]       0.00141628 [Eh]
    Vibrational H         103.367 [kcal/mol]      432.487 [kJ/mol]       0.16472563 [Eh]
  Correction H            105.737 [kcal/mol]      442.403 [kJ/mol]       0.16850237 [Eh]
  Total H, Enthalpy at  298.15 [K]                                    -454.85567853 [Eh]

  Gibbs free energy, G = H - T * S
    Electronic G            0.000 [kcal/mol]        0.000 [kJ/mol]       0.00000000 [Eh]
    Translational G       -10.594 [kcal/mol]      -44.327 [kJ/mol]      -0.01688325 [Eh]
    Rotational G           -7.730 [kcal/mol]      -32.341 [kJ/mol]      -0.01231807 [Eh]
    Vibrational G          94.964 [kcal/mol]      397.329 [kJ/mol]       0.15133459 [Eh]
  Correction G             76.640 [kcal/mol]      320.661 [kJ/mol]       0.12213326 [Eh]
  Total G, Free enthalpy at  298.15 [K]                               -454.90204764 [Eh]

    Psi4 stopped on: Monday, 14 January 2019 06:55PM
    Psi4 wall time for execution: 1:31:33.85

*** Psi4 exiting successfully. Buy a developer a beer!
