
    -----------------------------------------------------------------------
          Psi4: An Open-Source Ab Initio Electronic Structure Package
                               Psi4 1.2.1 release

                         Git: Rev {HEAD} 406f4de 


    R. M. Parrish, L. A. Burns, D. G. A. Smith, A. C. Simmonett,
    A. E. DePrince III, E. G. Hohenstein, U. Bozkaya, A. Yu. Sokolov,
    R. Di Remigio, R. M. Richard, J. F. Gonthier, A. M. James,
    H. R. McAlexander, A. Kumar, M. Saitow, X. Wang, B. P. Pritchard,
    P. Verma, H. F. Schaefer III, K. Patkowski, R. A. King, E. F. Valeev,
    F. A. Evangelista, J. M. Turney, T. D. Crawford, and C. D. Sherrill,
    J. Chem. Theory Comput. 13(7) pp 3185--3197 (2017).
    (doi: 10.1021/acs.jctc.7b00174)


                         Additional Contributions by
    P. Kraus, H. Kruse, M. H. Lechner, M. C. Schieber, and R. A. Shaw

    -----------------------------------------------------------------------


    Psi4 started on: Monday, 08 April 2019 02:01PM

    Process ID: 12108
    Host:       localhost.localdomain
    PSIDATADIR: /root/psi4conda/share/psi4
    Memory:     500.0 MiB
    Threads:    1
    
  ==> Input File <==

--------------------------------------------------------------------------

molecule {
0 1
 C   -0.013640455524   -0.304855975907   -0.810379818598
 O   -1.076658993565   -0.439893960784   -1.481825450171
 F    1.062864289563   -0.023598561706    1.294372531015
 F   -1.097616516737    0.080821320964    1.276570700398
 F   -0.104165444803   -1.814358371024    0.969731468779
 H    0.968312521123   -0.646571602118   -1.195237418418
 C   -0.051533518422   -0.505930890741    0.712794309826
--
0 1
 H    0.992026311039    2.914407371958   -1.825047800286
 C    1.211964312257    1.872706905514   -1.617459730801
 H    1.398768059056    1.323234574780   -2.542582410924
 H    2.063852546695    1.797892286290   -0.943598543110
 O    0.085591558919    1.317072805176   -0.932426337620
 H   -0.729913783851    1.169050389932   -1.501740898641
symmetry c1
no_reorient
no_com
}

set{
  basis 6-311++G(d,p)
  freeze_core True
}

set_num_threads(32)
energy('fisapt0')
--------------------------------------------------------------------------
  Threads set to 32 by Python driver.

*** tstart() called on localhost.localdomain
*** at Mon Apr  8 14:01:27 2019

   => Loading Basis Set <=

    Name: 6-311++G(D,P)
    Role: ORBITAL
    Keyword: BASIS
    atoms 1, 7, 9         entry C          line   119 file /root/psi4conda/share/psi4/basis/6-311ppg_d_p_.gbs 
    atoms 2, 12           entry O          line   161 file /root/psi4conda/share/psi4/basis/6-311ppg_d_p_.gbs 
    atoms 3-5             entry F          line   182 file /root/psi4conda/share/psi4/basis/6-311ppg_d_p_.gbs 
    atoms 6, 8, 10-11, 13 entry H          line    42 file /root/psi4conda/share/psi4/basis/6-311ppg_d_p_.gbs 


         ---------------------------------------------------------
                                   SCF
            by Justin Turney, Rob Parrish, Andy Simmonett
                             and Daniel Smith
                              RHF Reference
                       32 Threads,    500 MiB Core
         ---------------------------------------------------------

  ==> Geometry <==

    Molecular point group: c1
    Full point group: C1

    Geometry (in Angstrom), charge = 0, multiplicity = 1:

       Center              X                  Y                   Z               Mass       
    ------------   -----------------  -----------------  -----------------  -----------------
         C           -0.013640455524    -0.304855975907    -0.810379818598    12.000000000000
         O           -1.076658993565    -0.439893960784    -1.481825450171    15.994914619560
         F            1.062864289563    -0.023598561706     1.294372531015    18.998403224000
         F           -1.097616516737     0.080821320964     1.276570700398    18.998403224000
         F           -0.104165444803    -1.814358371024     0.969731468779    18.998403224000
         H            0.968312521123    -0.646571602118    -1.195237418418     1.007825032070
         C           -0.051533518422    -0.505930890741     0.712794309826    12.000000000000
         H            0.992026311039     2.914407371958    -1.825047800286     1.007825032070
         C            1.211964312257     1.872706905514    -1.617459730801    12.000000000000
         H            1.398768059056     1.323234574780    -2.542582410924     1.007825032070
         H            2.063852546695     1.797892286290    -0.943598543110     1.007825032070
         O            0.085591558919     1.317072805176    -0.932426337620    15.994914619560
         H           -0.729913783851     1.169050389932    -1.501740898641     1.007825032070

  Running in c1 symmetry.

  Rotational constants: A =      0.10371  B =      0.05193  C =      0.04419 [cm^-1]
  Rotational constants: A =   3109.29158  B =   1556.86370  C =   1324.74967 [MHz]
  Nuclear repulsion =  444.710661890539370

  Charge       = 0
  Multiplicity = 1
  Electrons    = 66
  Nalpha       = 33
  Nbeta        = 33

  ==> Algorithm <==

  SCF Algorithm Type is DF.
  DIIS enabled.
  MOM disabled.
  Fractional occupation disabled.
  Guess Type is SAD.
  Energy threshold   = 1.00e-08
  Density threshold  = 1.00e-08
  Integral threshold = 0.00e+00

  ==> Primary Basis <==

  Basis Set: 6-311++G(D,P)
    Blend: 6-311++G(D,P)
    Number of shells: 105
    Number of basis function: 211
    Number of Cartesian functions: 219
    Spherical Harmonics?: true
    Max angular momentum: 2

   => Loading Basis Set <=

    Name: (6-311++G(D,P) AUX)
    Role: JKFIT
    Keyword: DF_BASIS_SCF
    atoms 1, 7, 9         entry C          line   162 file /root/psi4conda/share/psi4/basis/aug-cc-pvtz-jkfit.gbs 
    atoms 2, 12           entry O          line   286 file /root/psi4conda/share/psi4/basis/aug-cc-pvtz-jkfit.gbs 
    atoms 3-5             entry F          line   348 file /root/psi4conda/share/psi4/basis/aug-cc-pvtz-jkfit.gbs 
    atoms 6, 8, 10-11, 13 entry H          line    70 file /root/psi4conda/share/psi4/basis/aug-cc-pvtz-jkfit.gbs 

  ==> Pre-Iterations <==

   -------------------------------------------------------
    Irrep   Nso     Nmo     Nalpha   Nbeta   Ndocc  Nsocc
   -------------------------------------------------------
     A        211     211       0       0       0       0
   -------------------------------------------------------
    Total     211     211      33      33      33       0
   -------------------------------------------------------

  ==> Integral Setup <==

  DFHelper Memory: AOs need 0.436 [GiB]; user supplied 0.366 [GiB]. Turning off in-core AOs.

  ==> MemDFJK: Density-Fitted J/K Matrices <==

    J tasked:                   Yes
    K tasked:                   Yes
    wK tasked:                   No
    OpenMP threads:              32
    Memory (MB):                375
    Algorithm:                 Disk
    Schwarz Cutoff:           1E-12
    Mask sparsity (%):       6.6306
    Fitting Condition:        1E-12

   => Auxiliary Basis Set <=

  Basis Set: (6-311++G(D,P) AUX)
    Blend: AUG-CC-PVTZ-JKFIT
    Number of shells: 310
    Number of basis function: 1062
    Number of Cartesian functions: 1323
    Spherical Harmonics?: true
    Max angular momentum: 4

  Minimum eigenvalue in the overlap matrix is 5.8366600889E-05.
  Using Symmetric Orthogonalization.

  SCF Guess: Superposition of Atomic Densities via on-the-fly atomic UHF.

  ==> Iterations <==

                           Total Energy        Delta E     RMS |[F,P]|

   @DF-RHF iter   0:  -567.10688851447981   -5.67107e+02   1.19933e-01 
   @DF-RHF iter   1:  -564.31272243527803    2.79417e+00   1.87813e-02 
   @DF-RHF iter   2:  -564.52602323105407   -2.13301e-01   1.41136e-02 DIIS
   @DF-RHF iter   3:  -564.62764878916505   -1.01626e-01   3.10956e-03 DIIS
   @DF-RHF iter   4:  -564.63575546419020   -8.10668e-03   1.16588e-03 DIIS
   @DF-RHF iter   5:  -564.63694021500498   -1.18475e-03   3.37119e-04 DIIS
   @DF-RHF iter   6:  -564.63710009952490   -1.59885e-04   8.24500e-05 DIIS
   @DF-RHF iter   7:  -564.63712067925587   -2.05797e-05   2.89631e-05 DIIS
   @DF-RHF iter   8:  -564.63712212927987   -1.45002e-06   1.02013e-05 DIIS
   @DF-RHF iter   9:  -564.63712228678901   -1.57509e-07   3.75543e-06 DIIS
   @DF-RHF iter  10:  -564.63712230733540   -2.05464e-08   1.08444e-06 DIIS
   @DF-RHF iter  11:  -564.63712231018462   -2.84922e-09   2.78224e-07 DIIS
   @DF-RHF iter  12:  -564.63712231035220   -1.67574e-10   7.72899e-08 DIIS
   @DF-RHF iter  13:  -564.63712231036470   -1.25056e-11   3.34464e-08 DIIS
   @DF-RHF iter  14:  -564.63712231036629   -1.59162e-12   1.36319e-08 DIIS
   @DF-RHF iter  15:  -564.63712231036675   -4.54747e-13   3.80241e-09 DIIS

  ==> Post-Iterations <==

    Orbital Energies [Eh]
    ---------------------

    Doubly Occupied:                                                      

       1A    -26.347552     2A    -26.344008     3A    -26.342717  
       4A    -20.668972     5A    -20.505909     6A    -11.511344  
       7A    -11.387851     8A    -11.336020     9A     -1.740517  
      10A     -1.642899    11A     -1.642181    12A     -1.498030  
      13A     -1.344691    14A     -1.036829    15A     -1.006332  
      16A     -0.909672    17A     -0.834147    18A     -0.831743  
      19A     -0.796997    20A     -0.783829    21A     -0.722705  
      22A     -0.715090    23A     -0.705276    24A     -0.687628  
      25A     -0.669935    26A     -0.664870    27A     -0.652165  
      28A     -0.626581    29A     -0.603264    30A     -0.582085  
      31A     -0.570649    32A     -0.442455    33A     -0.419047  

    Virtual:                                                              

      34A      0.026495    35A      0.048913    36A      0.060398  
      37A      0.068261    38A      0.086099    39A      0.109622  
      40A      0.112345    41A      0.121243    42A      0.129012  
      43A      0.150273    44A      0.156603    45A      0.159917  
      46A      0.163947    47A      0.172979    48A      0.181720  
      49A      0.192987    50A      0.210421    51A      0.226362  
      52A      0.257406    53A      0.270245    54A      0.283976  
      55A      0.302016    56A      0.318750    57A      0.325360  
      58A      0.339932    59A      0.346826    60A      0.368169  
      61A      0.374088    62A      0.383285    63A      0.388777  
      64A      0.399672    65A      0.400610    66A      0.408554  
      67A      0.418030    68A      0.427364    69A      0.444542  
      70A      0.449461    71A      0.456995    72A      0.465133  
      73A      0.473558    74A      0.485118    75A      0.487618  
      76A      0.498166    77A      0.524703    78A      0.539791  
      79A      0.554675    80A      0.566760    81A      0.571917  
      82A      0.575988    83A      0.640137    84A      0.652070  
      85A      0.695392    86A      0.743102    87A      0.761527  
      88A      0.791954    89A      0.801789    90A      0.826788  
      91A      0.831736    92A      0.849133    93A      0.869205  
      94A      0.904758    95A      0.917602    96A      0.959705  
      97A      1.087579    98A      1.177562    99A      1.190559  
     100A      1.218159   101A      1.227515   102A      1.281453  
     103A      1.312633   104A      1.370546   105A      1.422351  
     106A      1.452267   107A      1.474395   108A      1.500433  
     109A      1.567406   110A      1.585126   111A      1.613591  
     112A      1.629438   113A      1.645630   114A      1.652366  
     115A      1.674293   116A      1.687399   117A      1.695223  
     118A      1.707011   119A      1.725377   120A      1.743974  
     121A      1.746007   122A      1.763429   123A      1.782897  
     124A      1.820527   125A      1.833887   126A      1.867730  
     127A      1.893341   128A      1.939550   129A      1.974643  
     130A      1.998111   131A      2.012340   132A      2.048619  
     133A      2.116319   134A      2.176385   135A      2.183748  
     136A      2.199411   137A      2.223673   138A      2.264109  
     139A      2.281724   140A      2.325229   141A      2.366767  
     142A      2.397143   143A      2.494780   144A      2.520382  
     145A      2.605412   146A      2.732269   147A      2.765887  
     148A      2.797261   149A      2.833591   150A      2.854749  
     151A      2.874160   152A      2.989715   153A      3.066494  
     154A      3.099256   155A      3.231335   156A      3.253653  
     157A      3.266806   158A      3.332998   159A      3.349403  
     160A      3.386636   161A      3.424609   162A      3.517386  
     163A      3.567111   164A      3.688793   165A      3.796553  
     166A      3.843244   167A      4.013901   168A      4.088181  
     169A      4.135387   170A      4.141673   171A      4.172481  
     172A      4.177335   173A      4.183244   174A      4.198555  
     175A      4.207768   176A      4.210623   177A      4.296555  
     178A      4.319176   179A      4.370536   180A      4.392661  
     181A      4.435200   182A      4.483644   183A      4.598661  
     184A      4.661670   185A      4.680840   186A      5.078946  
     187A      5.396207   188A      5.421214   189A      5.636185  
     190A      5.709605   191A      5.756162   192A      5.875169  
     193A      6.135752   194A      6.292507   195A      6.935156  
     196A      6.956280   197A      6.976371   198A      7.001016  
     199A      7.009677   200A      7.036233   201A      7.098107  
     202A      7.395974   203A      7.426685   204A     24.656474  
     205A     24.938425   206A     25.027113   207A     51.552580  
     208A     51.745367   209A     68.732771   210A     68.738469  
     211A     68.794172  

    Final Occupation by Irrep:
              A 
    DOCC [    33 ]

  Energy converged.

  @DF-RHF Final Energy:  -564.63712231036675

   => Energetics <=

    Nuclear Repulsion Energy =            444.7106618905393702
    One-Electron Energy =               -1665.5475863326962553
    Two-Electron Energy =                 656.1998021317901930
    Total Energy =                       -564.6371223103667489



Properties will be evaluated at   0.000000,   0.000000,   0.000000 [a0]

Properties computed using the SCF density matrix

  Nuclear Dipole Moment: [e a0]
     X:     4.5259      Y:     7.8098      Z:   -10.8592

  Electronic Dipole Moment: [e a0]
     X:    -2.9308      Y:    -6.2872      Z:     9.9937

  Dipole Moment: [e a0]
     X:     1.5950      Y:     1.5226      Z:    -0.8655     Total:     2.3689

  Dipole Moment: [D]
     X:     4.0542      Y:     3.8701      Z:    -2.1999     Total:     6.0211


*** tstop() called on localhost.localdomain at Mon Apr  8 14:01:34 2019
Module time:
	user time   =     179.95 seconds =       3.00 minutes
	system time =      16.29 seconds =       0.27 minutes
	total time  =          7 seconds =       0.12 minutes
Total time:
	user time   =     179.95 seconds =       3.00 minutes
	system time =      16.29 seconds =       0.27 minutes
	total time  =          7 seconds =       0.12 minutes
  Constructing Basis Sets for FISAPT...

   => Loading Basis Set <=

    Name: (6-311++G(D,P) AUX)
    Role: JKFIT
    Keyword: DF_BASIS_SCF
    atoms 1, 7, 9         entry C          line   162 file /root/psi4conda/share/psi4/basis/aug-cc-pvtz-jkfit.gbs 
    atoms 2, 12           entry O          line   286 file /root/psi4conda/share/psi4/basis/aug-cc-pvtz-jkfit.gbs 
    atoms 3-5             entry F          line   348 file /root/psi4conda/share/psi4/basis/aug-cc-pvtz-jkfit.gbs 
    atoms 6, 8, 10-11, 13 entry H          line    70 file /root/psi4conda/share/psi4/basis/aug-cc-pvtz-jkfit.gbs 

   => Loading Basis Set <=

    Name: (6-311++G(D,P) AUX)
    Role: RIFIT
    Keyword: DF_BASIS_SAPT
    atoms 1, 7, 9         entry C          line   148 file /root/psi4conda/share/psi4/basis/aug-cc-pvtz-ri.gbs 
    atoms 2, 12           entry O          line   264 file /root/psi4conda/share/psi4/basis/aug-cc-pvtz-ri.gbs 
    atoms 3-5             entry F          line   322 file /root/psi4conda/share/psi4/basis/aug-cc-pvtz-ri.gbs 
    atoms 6, 8, 10-11, 13 entry H          line    30 file /root/psi4conda/share/psi4/basis/aug-cc-pvtz-ri.gbs 

   => Loading Basis Set <=

    Name: CC-PVTZ-MINAO
    Role: ORBITAL
    Keyword: BASIS
    atoms 1, 7, 9         entry C          line   119 file /root/psi4conda/share/psi4/basis/cc-pvtz-minao.gbs 
    atoms 2, 12           entry O          line   179 file /root/psi4conda/share/psi4/basis/cc-pvtz-minao.gbs 
    atoms 3-5             entry F          line   209 file /root/psi4conda/share/psi4/basis/cc-pvtz-minao.gbs 
    atoms 6, 8, 10-11, 13 entry H          line    20 file /root/psi4conda/share/psi4/basis/cc-pvtz-minao.gbs 

	 --------------------------------------------
	                    FISAPT0                  
	                  Rob Parrish                
	 --------------------------------------------

    Do F-SAPT =         Yes
    Do Plot   =          No
    Memory    =       0.055 [GD]

  ==> Localization (IBO) <==

  ==> IBO Localizer 2 <==

    MinAO Basis = CC-PVTZ-MINAO
    Use Ghosts  =       FALSE
    Use Stars   =       FALSE
    Condition   =   1.000E-07
    Power       =           4
    Convergence =   1.000E-12
    Maxiter     =         200

    @IBO Iter:                   Metric       Gradient
    @IBO    1:   1.7480443270630623E+00   2.978883E+00
    @IBO    2:   2.0993581559548553E+00   2.781263E+00
    @IBO    3:   2.1632358372275728E+00   9.389894E-01
    @IBO    4:   2.1676310834279851E+00   6.596248E-02
    @IBO    5:   2.1676574657776460E+00   1.589936E-03
    @IBO    6:   2.1676574842324783E+00   2.934573E-05
    @IBO    7:   2.1676574842393528E+00   4.953322E-07
    @IBO    8:   2.1676574842393554E+00   1.324629E-08
    @IBO    9:   2.1676574842393554E+00   2.881414E-10
    @IBO   10:   2.1676574842393554E+00   5.054458E-12
    @IBO   11:   2.1676574842393554E+00   9.578675E-14

    IBO Localizer 2 converged.

  ==> Partitioning <==

   => Atomic Partitioning <= 

    Monomer A:   7 atoms
    Monomer B:   6 atoms
    Monomer C:   0 atoms

   => Link Bond Identification <=

    Link Bond Selection = AUTOMATIC

    Charge Completeness = 0.800

    Total Link Bonds = 0

   => Link Bond Assignment <=

    Link Bond Assignment      = C

   => Partition Summary <=

    Monomer A:  0 charge,  48 protons,  48 electrons,  24 docc
    Monomer B:  0 charge,  18 protons,  18 electrons,   9 docc
    Monomer C:  0 charge,   0 protons,   0 electrons,   0 docc

  ==> Overlap Integrals <==

  ==> Kinetic Integrals <==

  ==> Nuclear Integrals <==

    Nuclear Repulsion Tot:   4.4471066189053931E+02 [Eh]

  ==> Coulomb Integrals <==

  DFHelper Memory: AOs need 0.436 [GiB]; user supplied 0.439 [GiB]. Using in-core AOs.

  ==> MemDFJK: Density-Fitted J/K Matrices <==

    J tasked:                   Yes
    K tasked:                   Yes
    wK tasked:                   No
    OpenMP threads:              32
    Memory (MB):                450
    Algorithm:                 Core
    Schwarz Cutoff:           1E-12
    Mask sparsity (%):       6.6306
    Fitting Condition:        1E-12

   => Auxiliary Basis Set <=

  Basis Set: (6-311++G(D,P) AUX)
    Blend: AUG-CC-PVTZ-JKFIT
    Number of shells: 310
    Number of basis function: 1062
    Number of Cartesian functions: 1323
    Spherical Harmonics?: true
    Max angular momentum: 4

  ==> Relaxed SCF Equations <==

  ==> SCF A: <==

    Maxiter =         100
    E Tol   =   1.000E-08
    D Tol   =   1.000E-08

    Max DIIS Vectors = 10

    Iter   N:                        E          dE         |D|
    Iter   1:  -4.4927723778160106E+02  -4.493E+02   3.575E-02 
    Iter   2:  -4.4955774365738239E+02  -2.805E-01   5.028E-03 DIIS
    Iter   3:  -4.4957539043384531E+02  -1.765E-02   2.629E-03 DIIS
    Iter   4:  -4.4958233165564735E+02  -6.941E-03   1.331E-03 DIIS
    Iter   5:  -4.4958513695005030E+02  -2.805E-03   5.516E-04 DIIS
    Iter   6:  -4.4958595107361202E+02  -8.141E-04   1.886E-04 DIIS
    Iter   7:  -4.4958604599648550E+02  -9.492E-05   4.233E-05 DIIS
    Iter   8:  -4.4958604811547036E+02  -2.119E-06   1.487E-05 DIIS
    Iter   9:  -4.4958604852500014E+02  -4.095E-07   4.569E-06 DIIS
    Iter  10:  -4.4958604858523785E+02  -6.024E-08   2.139E-06 DIIS
    Iter  11:  -4.4958604860642913E+02  -2.119E-08   9.884E-07 DIIS
    Iter  12:  -4.4958604861415012E+02  -7.721E-09   5.209E-07 DIIS
    Iter  13:  -4.4958604861563720E+02  -1.487E-09   2.628E-07 DIIS
    Iter  14:  -4.4958604861604749E+02  -4.103E-10   9.522E-08 DIIS
    Iter  15:  -4.4958604861612821E+02  -8.072E-11   3.866E-08 DIIS
    Iter  16:  -4.4958604861613344E+02  -5.230E-12   2.234E-08 DIIS
    Iter  17:  -4.4958604861613424E+02  -7.958E-13   7.570E-09 DIIS

    FISAPTSCF Converged.

    Final SCF Energy:  -4.4958604861613424E+02 [Eh]

   => Occupied Orbital Energies <=

       1  -26.374508     2  -26.369963     3  -26.366553  
       4  -20.634844     5  -11.547420     6  -11.406269  
       7   -1.766051     8   -1.669511     9   -1.665369  
      10   -1.422853    11   -1.056548    12   -0.927941  
      13   -0.858215    14   -0.856040    15   -0.800793  
      16   -0.741131    17   -0.739713    18   -0.701232  
      19   -0.693710    20   -0.680989    21   -0.675909  
      22   -0.650111    23   -0.554019    24   -0.494100  

   => Virtual Orbital Energies <=

      25    0.023430    26    0.035084    27    0.053721  
      28    0.064920    29    0.071986    30    0.095411  
      31    0.102996    32    0.116777    33    0.121372  
      34    0.124041    35    0.128665    36    0.150926  
      37    0.160714    38    0.168586    39    0.169620  
      40    0.184865    41    0.189527    42    0.208545  
      43    0.254853    44    0.269597    45    0.286180  
      46    0.306689    47    0.315363    48    0.316075  
      49    0.323190    50    0.341897    51    0.342678  
      52    0.367200    53    0.369258    54    0.380765  
      55    0.391491    56    0.402229    57    0.408632  
      58    0.417585    59    0.425117    60    0.433167  
      61    0.437510    62    0.448964    63    0.455752  
      64    0.469510    65    0.479353    66    0.489296  
      67    0.501455    68    0.506541    69    0.526044  
      70    0.538074    71    0.548966    72    0.567669  
      73    0.604320    74    0.625157    75    0.633108  
      76    0.665337    77    0.713010    78    0.767149  
      79    0.792199    80    0.807966    81    0.838420  
      82    0.862766    83    0.883860    84    0.894887  
      85    0.948950    86    0.975004    87    1.001427  
      88    1.024965    89    1.090524    90    1.167716  
      91    1.182634    92    1.223875    93    1.258789  
      94    1.328203    95    1.369195    96    1.398138  
      97    1.417697    98    1.467806    99    1.508274  
     100    1.551697   101    1.575820   102    1.617737  
     103    1.629657   104    1.641443   105    1.667165  
     106    1.680616   107    1.687380   108    1.719904  
     109    1.729196   110    1.759546   111    1.764272  
     112    1.777970   113    1.827411   114    1.834285  
     115    1.865364   116    1.925454   117    1.949528  
     118    1.986179   119    2.022063   120    2.054697  
     121    2.074942   122    2.116851   123    2.169443  
     124    2.214126   125    2.245026   126    2.250104  
     127    2.257751   128    2.314008   129    2.341226  
     130    2.374941   131    2.416771   132    2.448000  
     133    2.605462   134    2.623962   135    2.666798  
     136    2.692555   137    2.758519   138    2.804002  
     139    2.894519   140    3.008510   141    3.025172  
     142    3.049060   143    3.073438   144    3.204011  
     145    3.277486   146    3.293756   147    3.308206  
     148    3.325888   149    3.386605   150    3.411956  
     151    3.438150   152    3.490359   153    3.611793  
     154    3.666557   155    3.754922   156    3.793971  
     157    3.824585   158    3.970552   159    4.116799  
     160    4.149118   161    4.152611   162    4.172552  
     163    4.180118   164    4.186311   165    4.258196  
     166    4.336050   167    4.354988   168    4.367270  
     169    4.455789   170    4.553236   171    4.590506  
     172    4.635620   173    4.656985   174    4.724888  
     175    4.823905   176    4.875607   177    4.925784  
     178    5.078524   179    5.263180   180    5.372864  
     181    5.396062   182    5.478378   183    5.622895  
     184    5.662329   185    5.901997   186    6.215229  
     187    6.910433   188    6.929876   189    6.955227  
     190    6.976960   191    6.983363   192    7.014701  
     193    7.073254   194    7.371156   195    7.399718  
     196    7.764345   197    7.778186   198    7.967533  
     199    9.947608   200   13.562585   201   13.769615  
     202   14.019801   203   18.485910   204   24.621415  
     205   24.920545   206   51.613810   207   68.705747  
     208   68.713536   209   68.769504   210   69.941765  
     211  139.721487  

  ==> SCF B: <==

    Maxiter =         100
    E Tol   =   1.000E-08
    D Tol   =   1.000E-08

    Max DIIS Vectors = 10

    Iter   N:                        E          dE         |D|
    Iter   1:  -1.1454418190480934E+02  -1.145E+02   5.115E-02 
    Iter   2:  -1.1506125756066922E+02  -5.171E-01   3.427E-03 DIIS
    Iter   3:  -1.1507452203831234E+02  -1.326E-02   9.139E-04 DIIS
    Iter   4:  -1.1507552379390518E+02  -1.002E-03   3.663E-04 DIIS
    Iter   5:  -1.1507566932530631E+02  -1.455E-04   1.415E-04 DIIS
    Iter   6:  -1.1507570400256165E+02  -3.468E-05   6.178E-05 DIIS
    Iter   7:  -1.1507571149679715E+02  -7.494E-06   1.190E-05 DIIS
    Iter   8:  -1.1507571207468254E+02  -5.779E-07   3.804E-06 DIIS
    Iter   9:  -1.1507571210757149E+02  -3.289E-08   7.214E-07 DIIS
    Iter  10:  -1.1507571210912684E+02  -1.555E-09   1.301E-07 DIIS
    Iter  11:  -1.1507571210916895E+02  -4.211E-11   2.095E-08 DIIS
    Iter  12:  -1.1507571210916996E+02  -1.009E-12   5.666E-09 DIIS

    FISAPTSCF Converged.

    Final SCF Energy:  -1.1507571210916996E+02 [Eh]

   => Occupied Orbital Energies <=

       1  -20.555099     2  -11.273520     3   -1.339170  
       4   -0.924901     5   -0.677559     6   -0.621237  
       7   -0.594678     8   -0.493400     9   -0.447379  

   => Virtual Orbital Energies <=

      10    0.036280    11    0.054686    12    0.058358  
      13    0.069696    14    0.090304    15    0.091357  
      16    0.102570    17    0.116469    18    0.118553  
      19    0.143300    20    0.149167    21    0.159424  
      22    0.166378    23    0.167382    24    0.187304  
      25    0.192604    26    0.205920    27    0.256401  
      28    0.262810    29    0.274949    30    0.284821  
      31    0.297149    32    0.303910    33    0.312239  
      34    0.321238    35    0.327326    36    0.340465  
      37    0.349348    38    0.360685    39    0.364389  
      40    0.381892    41    0.396695    42    0.400623  
      43    0.409565    44    0.419392    45    0.421596  
      46    0.425743    47    0.452434    48    0.463916  
      49    0.476064    50    0.516404    51    0.542993  
      52    0.574636    53    0.587758    54    0.606205  
      55    0.634357    56    0.652112    57    0.676645  
      58    0.700625    59    0.720680    60    0.735880  
      61    0.750499    62    0.769753    63    0.786681  
      64    0.803346    65    0.857306    66    0.870501  
      67    0.886986    68    0.915919    69    0.973502  
      70    0.983657    71    0.998281    72    1.024171  
      73    1.077006    74    1.104029    75    1.129389  
      76    1.153158    77    1.195985    78    1.212738  
      79    1.235107    80    1.286773    81    1.293801  
      82    1.309959    83    1.321036    84    1.333892  
      85    1.352810    86    1.356922    87    1.396625  
      88    1.494238    89    1.582813    90    1.634059  
      91    1.659192    92    1.669917    93    1.705685  
      94    1.730827    95    1.808266    96    1.822447  
      97    1.836649    98    1.871620    99    1.886800  
     100    1.972750   101    1.987445   102    2.007008  
     103    2.026910   104    2.038667   105    2.070314  
     106    2.103400   107    2.170479   108    2.242586  
     109    2.288247   110    2.332046   111    2.395928  
     112    2.459173   113    2.504861   114    2.519253  
     115    2.551064   116    2.631727   117    2.702531  
     118    2.735882   119    2.760590   120    2.795616  
     121    2.846454   122    2.862648   123    2.888463  
     124    2.906847   125    2.939867   126    2.954253  
     127    2.991786   128    3.027453   129    3.181598  
     130    3.195169   131    3.262270   132    3.316667  
     133    3.345845   134    3.387825   135    3.411671  
     136    3.426393   137    3.504238   138    3.566443  
     139    3.630531   140    3.763087   141    3.912423  
     142    3.938814   143    3.952069   144    3.977481  
     145    3.986575   146    4.013238   147    4.030895  
     148    4.070786   149    4.163301   150    4.231697  
     151    4.244129   152    4.375955   153    4.425692  
     154    4.434743   155    4.507480   156    4.583500  
     157    4.696852   158    4.740127   159    5.099822  
     160    5.211424   161    5.733977   162    5.846561  
     163    5.970777   164    6.147410   165    6.151843  
     166    6.170045   167    6.173375   168    6.179769  
     169    6.185412   170    6.218992   171    6.245183  
     172    6.323048   173    6.337582   174    6.478391  
     175    6.641860   176    6.655315   177    6.691517  
     178    7.013331   179    7.049582   180    7.628873  
     181    7.745946   182    7.932019   183    8.343365  
     184    8.364590   185    8.492766   186    9.926931  
     187   10.022832   188   13.562151   189   13.591235  
     190   14.121234   191   17.436791   192   17.456408  
     193   17.485737   194   17.505196   195   17.509653  
     196   17.544574   197   17.656546   198   17.865123  
     199   17.891248   200   18.631455   201   24.039487  
     202   24.052724   203   24.149699   204   25.089443  
     205   51.671281   206   69.828869   207   69.981719  
     208  139.793166   209  183.863145   210  183.872645  
     211  183.885795  

  ==> Frozen Core <==


    ------------------
    Range      A     B
    ------------------
    nbf      211   211
    nmo      211   211
    nocc      24     9
    nvir     187   202
    nfocc      6     2
    naocc     18     7
    navir    187   202
    nfvir      0     0
    ------------------

  ==> Unification <==

  ==> dHF <==

    E ABC(HF) =  -5.6463712231036675E+02 [Eh]
    E AC(0)   =  -4.4958604861613424E+02 [Eh]
    E BC(0)   =  -1.1507571210916996E+02 [Eh]
    E A(0)    =  -4.4958604861613424E+02 [Eh]
    E B(0)    =  -1.1507571210916996E+02 [Eh]
    E AC(HF)  =  -4.4927723778160100E+02 [Eh]
    E BC(HF)  =  -1.1454418190480934E+02 [Eh]
    E AB(HF)  =  -5.6463712231036800E+02 [Eh]
    E A(HF)   =  -4.4927723778160100E+02 [Eh]
    E B(HF)   =  -1.1454418190480934E+02 [Eh]
    E C       =   0.0000000000000000E+00 [Eh]
    E HF      =   2.4638414937442121E-02 [Eh]

  ==> Electrostatics <==

    Elst10,r            =    -0.181460602907 [Eh]

  ==> Exchange <==

    Exch10(S^2)         =     0.307601961081 [Eh]
    Exch10              =     0.345959249957 [Eh]

  ==> Induction <==

    Ind20,u (A<-B)      =    -0.094409787468 [Eh]
    Ind20,u (B<-A)      =    -0.135779404256 [Eh]
    Ind20,u             =    -0.230189191724 [Eh]
    Exch-Ind20,u (A<-B) =     0.067725539738 [Eh]
    Exch-Ind20,u (B<-A) =     0.083405361742 [Eh]
    Exch-Ind20,u        =     0.151130901480 [Eh]

  ==> CPHF Iterations <==

    Maxiter     =         100
    Convergence =   1.000E-08

    -----------------------------------------
    Iter   Monomer A    Monomer B    Time [s]
    -----------------------------------------
    1      1.687E-01    2.150E-01           0
    2      4.736E-02    7.232E-02           0
    3      2.636E-02    2.598E-02           0
    4      1.096E-02    6.758E-03           0
    5      4.816E-03    2.016E-03           0
    6      1.633E-03    6.892E-04           0
    7      8.905E-04    2.082E-04           0
    8      3.794E-04    4.010E-05           1
    9      2.377E-04    8.440E-06           1
    10     5.378E-05    1.669E-06           1
    11     2.483E-05    4.422E-07           1
    12     7.422E-06    7.912E-08           1
    13     4.437E-06    1.120E-08           1
    14     1.027E-06    3.210E-09*          1
    15     2.904E-07    3.210E-09*          1
    16     6.920E-08    3.210E-09*          1
    17     1.834E-08    3.210E-09*          1
    18     6.512E-09*   3.210E-09*          1
    -----------------------------------------

    Ind20,r (A<-B)      =    -0.116360712031 [Eh]
    Ind20,r (B<-A)      =    -0.176998894328 [Eh]
    Ind20,r             =    -0.293359606359 [Eh]
    Exch-Ind20,r (A<-B) =     0.086339025621 [Eh]
    Exch-Ind20,r (B<-A) =     0.108524995999 [Eh]
    Exch-Ind20,r        =     0.194864021620 [Eh]

  ==> F-SAPT Localization (IBO) <==

  Local Orbitals for Monomer A:

  ==> IBO Localizer 2 <==

    MinAO Basis = CC-PVTZ-MINAO
    Use Ghosts  =       FALSE
    Use Stars   =       FALSE
    Condition   =   1.000E-07
    Power       =           4
    Convergence =   1.000E-12
    Maxiter     =         200

    @IBO Iter:                   Metric       Gradient
    @IBO    1:   1.6228400510837016E+00   2.604715E+00
    @IBO    2:   1.9532881050606690E+00   2.845960E+00
    @IBO    3:   2.0404267653659116E+00   7.706443E-01
    @IBO    4:   2.0445659127261062E+00   6.128041E-02
    @IBO    5:   2.0446132096698904E+00   3.584051E-03
    @IBO    6:   2.0446133207900106E+00   6.672971E-05
    @IBO    7:   2.0446133208300696E+00   1.241743E-06
    @IBO    8:   2.0446133208300954E+00   5.072904E-08
    @IBO    9:   2.0446133208300954E+00   7.677900E-10
    @IBO   10:   2.0446133208300949E+00   9.735573E-12
    @IBO   11:   2.0446133208300954E+00   1.109600E-13

    IBO Localizer 2 converged.

  Local Orbitals for Monomer B:

  ==> IBO Localizer 2 <==

    MinAO Basis = CC-PVTZ-MINAO
    Use Ghosts  =       FALSE
    Use Stars   =       FALSE
    Condition   =   1.000E-07
    Power       =           4
    Convergence =   1.000E-12
    Maxiter     =         200

    @IBO Iter:                   Metric       Gradient
    @IBO    1:   1.2808690827273110E+00   8.930480E-01
    @IBO    2:   1.4159286318512669E+00   5.982217E-01
    @IBO    3:   1.4457367711398070E+00   1.953373E-01
    @IBO    4:   1.4480447552402849E+00   3.124276E-02
    @IBO    5:   1.4480641688107159E+00   4.031085E-05
    @IBO    6:   1.4480641689578146E+00   1.402838E-07
    @IBO    7:   1.4480641689578155E+00   5.222013E-10
    @IBO    8:   1.4480641689578155E+00   2.577746E-12
    @IBO    9:   1.4480641689578155E+00   1.002040E-14

    IBO Localizer 2 converged.

  ==> F-SAPT Electrostatics <==

  DFHelper Memory: AOs need 0.465 [GiB]; user supplied 0.439 [GiB]. Turning off in-core AOs.

  ==> DFHelper <==
    nao:                             211
    naux:                           1062
    Schwarz cutoff:                1E-12
    Mask sparsity (%):                 7
    DFH Avail. Memory [GiB]:       0.439
    OpenMP threads:                   32
    Algorithm:                DIRECT_iaQ
    AO_core:                       False
    MO_core:                       False
    Hold Metric:                   False
    Metric Power:                 -5E-01
    Fitting condition:             1E-12
    Q Shell Max:                       9


    Elst10,r            =    -0.181460602929 [Eh]

  ==> F-SAPT Exchange <==

  DFHelper Memory: AOs need 0.465 [GiB]; user supplied 0.439 [GiB]. Turning off in-core AOs.

  ==> DFHelper <==
    nao:                             211
    naux:                           1062
    Schwarz cutoff:                1E-12
    Mask sparsity (%):                 7
    DFH Avail. Memory [GiB]:       0.439
    OpenMP threads:                   32
    Algorithm:                DIRECT_iaQ
    AO_core:                       False
    MO_core:                       False
    Hold Metric:                   False
    Metric Power:                 -5E-01
    Fitting condition:             1E-12
    Q Shell Max:                       9


    Exch10(S^2)         =     0.307601961080 [Eh]

    Scaling F-SAPT Exch10(S^2) by   1.125E+00 to match Exch10

  ==> F-SAPT Induction <==

  DFHelper Memory: AOs need 0.465 [GiB]; user supplied 0.439 [GiB]. Turning off in-core AOs.

  ==> DFHelper <==
    nao:                             211
    naux:                           1062
    Schwarz cutoff:                1E-12
    Mask sparsity (%):                 7
    DFH Avail. Memory [GiB]:       0.439
    OpenMP threads:                   32
    Algorithm:                DIRECT_iaQ
    AO_core:                       False
    MO_core:                       False
    Hold Metric:                   False
    Metric Power:                 -5E-01
    Fitting condition:             1E-12
    Q Shell Max:                       9


    Ind20,u (A<-B)      =    -0.094409787468 [Eh]
    Ind20,u (B<-A)      =    -0.135779404254 [Eh]
    Ind20,u             =    -0.230189191722 [Eh]
    Exch-Ind20,u (A<-B) =     0.067725539738 [Eh]
    Exch-Ind20,u (B<-A) =     0.083405361740 [Eh]
    Exch-Ind20,u        =     0.151130901478 [Eh]

    Scaling for delta HF        =   1.420E+00
    Scaling for response (A<-B) =   1.125E+00
    Scaling for response (B<-A) =   1.307E+00
    Scaling for total (A<-B)    =   1.598E+00
    Scaling for total (B<-A)    =   1.856E+00

  ==> F-SAPT Dispersion <==

  DFHelper Memory: AOs need 0.471 [GiB]; user supplied 0.438 [GiB]. Turning off in-core AOs.

  ==> DFHelper <==
    nao:                             211
    naux:                           1078
    Schwarz cutoff:                1E-12
    Mask sparsity (%):                 7
    DFH Avail. Memory [GiB]:       0.438
    OpenMP threads:                   32
    Algorithm:                DIRECT_iaQ
    AO_core:                       False
    MO_core:                       False
    Hold Metric:                   False
    Metric Power:                 -5E-01
    Fitting condition:             1E-12
    Q Shell Max:                       9


    Disp20              =    -0.052913163652 [Eh]
    Exch-Disp20         =     0.015548080074 [Eh]

  ==> F-SAPT Output <==

    F-SAPT Data Filepath = fsapt/

  ==> Results <==


    SAPT Results  
  --------------------------------------------------------------------------------------------------------
    Electrostatics               -181.46060291 [mEh]    -113.86825220 [kcal/mol]    -476.42481293 [kJ/mol]
      Elst10,r                   -181.46060291 [mEh]    -113.86825220 [kcal/mol]    -476.42481293 [kJ/mol]

    Exchange                      345.95924996 [mEh]     217.09271596 [kcal/mol]     908.31601076 [kJ/mol]
      Exch10                      345.95924996 [mEh]     217.09271596 [kcal/mol]     908.31601076 [kJ/mol]
      Exch10(S^2)                 307.60196108 [mEh]     193.02315280 [kcal/mol]     807.60894882 [kJ/mol]

    Induction                    -139.86023211 [mEh]     -87.76362432 [kcal/mol]    -367.20303941 [kJ/mol]
      Ind20,r                    -293.35960636 [mEh]    -184.08593991 [kcal/mol]    -770.21564650 [kJ/mol]
      Exch-Ind20,r                194.86402162 [mEh]     122.27902477 [kcal/mol]     511.61548876 [kJ/mol]
      delta HF,r (2)              -41.36464737 [mEh]     -25.95670919 [kcal/mol]    -108.60288168 [kJ/mol]
      Induction (A<-B)            -42.62972844 [mEh]     -26.75055958 [kcal/mol]    -111.92435201 [kJ/mol]
      Induction (B<-A)            -97.23050368 [mEh]     -61.01306475 [kcal/mol]    -255.27868740 [kJ/mol]

    Dispersion                    -37.36508358 [mEh]     -23.44694491 [kcal/mol]     -98.10202694 [kJ/mol]
      Disp20                      -52.91316365 [mEh]     -33.20351287 [kcal/mol]    -138.92351117 [kJ/mol]
      Exch-Disp20                  15.54808007 [mEh]       9.75656795 [kcal/mol]      40.82148423 [kJ/mol]

  Total HF                         24.63841494 [mEh]      15.46083944 [kcal/mol]      64.68815842 [kJ/mol]
  Total SAPT0                     -12.72666864 [mEh]      -7.98610548 [kcal/mol]     -33.41386852 [kJ/mol]

  --------------------------------------------------------------------------------------------------------
    Han Solo: This is *not* gonna work.
    Luke Skywalker: Why didn't you say so before?
    Han Solo: I *did* say so before.

    Psi4 stopped on: Monday, 08 April 2019 02:01PM
    Psi4 wall time for execution: 0:00:19.43

*** Psi4 exiting successfully. Buy a developer a beer!
