[Molden Format]

[FREQ]
       -1411.5990924889
          67.4902197276
          87.0567823474
         127.2211849304
         141.2129976605
         165.2575185459
         190.6549959130
         193.1385641979
         203.0084977276
         255.8337644891
         297.5158478810
         340.4628888349
         570.4939486904
         673.3446460450
         738.2077894108
         742.9659127483
         808.8384860013
        1004.1202814259
        1077.2328642576
        1137.5668756047
        1186.8657170702
        1235.1967935860
        1268.6792128917
        1342.3101998230
        1453.5439111102
        1485.0638742045
        1501.5037595028
        1510.7186206036
        2195.9542078872
        3007.4131148157
        3074.6049879302
        3166.2095970021
        3193.9108704653

[FR-COORD]
C          0.2159637251        0.5637495468       -2.9568940264
O         -1.7644027353        0.4279164381       -4.3884202357
BR         2.9862437265        0.8658606153        1.6683943035
BR        -3.0245312932        1.2124110208        1.3631515894
H          2.0842981067        6.6962963658       -4.4691102735
C          2.5105079410        4.7034466822       -4.1971298435
H          2.8583902639        3.7874315352       -6.0151374880
H          4.1360588009        4.4935478206       -2.9547563452
O          0.3715704265        3.5753717322       -2.9746635862
H         -1.2890087866        2.9761272433       -4.1886589398
C         -0.0324983935       -0.2204925580       -0.1437454593
BR        -0.2149024063       -3.8852063901       -0.1576291707
H          2.0650339293       -0.0856293894       -3.6653183149

[FR-NORM-COORD]
vibration 1
          -0.0616259476       -0.0736690715       -0.0403537991
           0.0212342596       -0.0507432622        0.0170844618
           0.0001677389        0.0001964785        0.0000208601
          -0.0001054689        0.0000280475        0.0001469994
           0.0313853526        0.0173376537       -0.0156552783
           0.0025165655        0.0141571947       -0.0100029415
          -0.0074257056       -0.0151832609        0.0079257685
          -0.0343742516       -0.0196956835        0.0222162991
          -0.0067710162        0.0409063430       -0.0011735104
           0.4766286016        0.8256693308        0.2608728993
          -0.0025524565       -0.0009976647        0.0027172171
           0.0001804987        0.0000158089        0.0002515471
           0.0194306361        0.0496481766        0.0065157338
vibration 2
          -0.0862581547        0.0206534743        0.0026552072
          -0.1530785215        0.2041007941        0.0761999588
          -0.0381306330        0.0516235653       -0.0283043024
          -0.0483454012       -0.0571543892        0.0465087591
           0.4741437153       -0.1940050738       -0.1093499938
           0.2752312848       -0.2338557527       -0.0891336212
           0.1244705990       -0.2997211790       -0.0844009117
           0.2929947222       -0.3791080426       -0.1370178292
           0.1959675799        0.0024655743       -0.0062672240
           0.0981823573        0.1570069792        0.0491010173
          -0.0393180109        0.0143645712        0.0045769677
           0.0445856720        0.0049053283       -0.0154402550
          -0.1721400730       -0.1460245390       -0.0694814996
vibration 3
          -0.0367966994       -0.0150392560       -0.0294811410
          -0.0351772442        0.0465575811       -0.0337456078
           0.0138768645        0.0137579677       -0.1125159057
          -0.0184169641       -0.0095867828       -0.0306813321
           0.1437776354        0.1179500567        0.4880287122
           0.1191245902        0.0942470950        0.3551247752
           0.3231378199        0.2545791012        0.3136547002
          -0.0175170435       -0.0104376883        0.5155571663
          -0.0030303681       -0.0152071426        0.0341056074
           0.0460924495        0.0301932434       -0.0626211373
          -0.0264625370       -0.0240301666       -0.0303026333
          -0.0019495934       -0.0235964530        0.0827748354
          -0.0461082671       -0.0257228728       -0.0454955306
vibration 4
           0.0246259907       -0.0742150117       -0.0153757211
           0.0803404182       -0.1980125260       -0.0766266266
          -0.0453310329        0.0913972059        0.0063901472
           0.0554686348       -0.0067964573        0.1095521658
           0.0610492197       -0.1060734220       -0.1129752332
           0.1303553580       -0.0569381431        0.1376581304
           0.5435175477       -0.1877983852        0.2832834937
          -0.1025111159        0.1416512200        0.4745509657
          -0.0322286614       -0.0859268116       -0.1742300824
           0.0975624398       -0.1590153417       -0.2934228856
          -0.0091198962       -0.0023642059       -0.0018703102
          -0.0505565162       -0.0020124624       -0.0887893909
           0.0650931501       -0.0597971410        0.0698897684
vibration 5
          -0.2240861652       -0.0806966488       -0.0232653722
          -0.3314870552       -0.0689971542        0.1205104903
          -0.1203680433       -0.1215356228        0.0555197550
           0.0257992523        0.2539505071       -0.0166159383
           0.0340629729       -0.0968833897        0.1135758419
           0.0090723650       -0.0926432537        0.1819097498
           0.2912536993       -0.0967837924        0.2391455868
          -0.1778101710       -0.0774075733        0.4284452334
          -0.1482938354       -0.1029612780       -0.1136261896
          -0.1414823481       -0.0511516447       -0.1199830598
          -0.0817296606       -0.0278927574       -0.0074651889
           0.2405263873       -0.0610650574       -0.0699569519
          -0.2875758730       -0.1397162159       -0.1388729802
vibration 6
           0.0113570418       -0.0330527343       -0.0083083553
          -0.0081749702        0.0307426737        0.0095423102
          -0.0486753940        0.0736175170        0.0064814558
           0.0772757011        0.0242936659       -0.0163451645
           0.1196452772        0.0874611933        0.5031879991
          -0.0497530517       -0.0151264616        0.0159700075
          -0.4424189041        0.3195489464       -0.2275368184
           0.1291117115       -0.4385104360       -0.2885732773
           0.0260885952       -0.0390344828        0.1245107007
          -0.0331000532        0.0243040489        0.1693248809
           0.0200048568       -0.0615125945       -0.0162185269
          -0.0264880394       -0.0790117116       -0.0174357972
          -0.0039623272       -0.0350596827       -0.0443321006
vibration 7
          -0.0680669315       -0.0342043048        0.0575834502
          -0.1989816527        0.0033433011        0.2334117886
           0.0869081906        0.0677611160        0.0507404059
           0.0185128692       -0.0189196656       -0.0963678907
          -0.2220623798       -0.1332008444       -0.3914614244
          -0.0127382466       -0.0266413982        0.0635948852
           0.3220974102       -0.3404381267        0.2856071803
          -0.1390704533        0.4116115475        0.3020944305
          -0.0173491840       -0.0380729483        0.0316954169
          -0.0782199136        0.0005699945        0.1108138193
           0.0657906251       -0.0208029138        0.0525728458
          -0.0560418579       -0.0277291067       -0.0372937363
          -0.1373092918       -0.0683963777       -0.0901278711
vibration 8
           0.0087515579        0.0296483484       -0.0370649532
           0.0051450882        0.1181837799       -0.0400791569
          -0.0652477704       -0.0034833885       -0.0101222365
           0.0553852195       -0.0033976558        0.0052631632
          -0.2829263495       -0.0331839645       -0.5568671208
          -0.0095361024        0.0914344199       -0.0647808795
           0.2687969391       -0.2578486019        0.1631469159
          -0.0736176616        0.6060677389        0.1058203408
           0.0520325377        0.0601741520        0.0117537568
           0.0190173439        0.0635716415        0.0262388294
          -0.0015343109       -0.0251802857       -0.0437758737
          -0.0004773847       -0.0489796307        0.0367846345
          -0.0014356794        0.0230322415       -0.0548516060
vibration 9
           0.0741511658       -0.0185660148        0.1320052522
           0.1880436098       -0.0218903023       -0.0207708309
           0.0332502743        0.0313459628       -0.0724844867
          -0.0948167267        0.0821670653        0.0278263040
          -0.2004629878       -0.2300120406       -0.4365785216
          -0.0574832379       -0.1369580296        0.0194174022
          -0.0105444015       -0.5185465549        0.2189687004
          -0.0329220440        0.2491278222        0.0515993066
           0.0252392622       -0.0209508920        0.2650460187
           0.0370004994       -0.0242750983        0.2353588594
          -0.0495475763       -0.0391176657        0.0936159094
           0.0242943566       -0.0688919495       -0.0461406434
           0.1320808954        0.0271121783        0.2462509134
vibration 10
          -0.0391651148        0.0235856232       -0.0200373878
           0.0089265580       -0.0050195358       -0.0926106974
          -0.0547268899       -0.0247479581       -0.0130590317
           0.0957980245       -0.0465041202       -0.0426099018
           0.0244981866       -0.3272250119       -0.2035059518
          -0.0782013574       -0.3022021409        0.1210569339
          -0.0933819552       -0.6083001095        0.2719236117
          -0.1187823080       -0.2029300469        0.1893888276
          -0.1338685708       -0.0471709699        0.2404622873
          -0.1064124883        0.0784478574        0.1965763460
           0.0073623911        0.0010960576       -0.0552843566
           0.0048421378        0.1362505744        0.0131376190
          -0.0084673062        0.1029512756       -0.0150161074
vibration 11
           0.0901260216       -0.1839628702        0.0590959873
          -0.0153689192       -0.0997314375        0.2035269295
          -0.0701655625       -0.0233908386       -0.0565487987
           0.0042494777       -0.0091968644        0.0025442595
          -0.4266492675        0.1001021147        0.0928580947
          -0.0240268869        0.1691771052       -0.0168659872
           0.0136477166        0.3128002958       -0.0814330935
           0.1075134483        0.4361237138       -0.1440007799
           0.2416305287       -0.2169360232        0.0841101054
           0.0684225207       -0.1272919872        0.2525038054
           0.0239497507       -0.0174722164        0.0459603192
           0.0092460312        0.0969977685       -0.0194376111
           0.0115151720       -0.3555698667        0.0159276202
vibration 12
           0.1012986743        0.1474687828        0.2743827832
           0.1056402789       -0.1235999782        0.3391117732
          -0.0808823567       -0.0246431009       -0.0779472279
           0.0436652262       -0.0159035724       -0.0376561501
           0.4473348035        0.0521967226       -0.0393207289
           0.0882552107       -0.0224151988       -0.0259257617
           0.0141829283       -0.0783193409       -0.0128618345
           0.0177215788       -0.2963882896        0.0232199206
          -0.1161656891        0.2771054616       -0.0830906610
           0.0266711978       -0.1301953954       -0.1545830802
           0.0351341153        0.0271658485        0.1367251875
          -0.0037115606       -0.0128615515        0.0038584658
           0.1907593017        0.3861749058        0.2842579523
vibration 13
           0.2394859122        0.1892849299       -0.2656776379
          -0.0312919669       -0.0856491490        0.1590838024
          -0.0155620089       -0.0033132828       -0.0023598246
          -0.0516239097        0.0184101732        0.0355088751
           0.0210711995       -0.0612830288       -0.0170520010
           0.0013628698       -0.0538576055        0.0258995806
           0.0158194552       -0.1175790805        0.0645345150
          -0.0503007628       -0.0724353916        0.0881094190
          -0.0067746159       -0.0448295335        0.0338350317
          -0.1749631142        0.1951358464        0.2607030995
           0.2947083454        0.0292196200       -0.2933386825
          -0.0069067501       -0.0175971502        0.0103094120
           0.2176009355        0.3623143991       -0.5133679309
vibration 14
          -0.0341097204        0.3804468031        0.0746688913
           0.0257824978        0.0000655353        0.0016460736
          -0.0025181947       -0.0051707386       -0.0068150092
           0.0212615691       -0.0116455355       -0.0139396404
          -0.3700018902       -0.0885894549        0.1940073112
          -0.0292915453       -0.0345169276       -0.0000549819
           0.0238742786        0.0975390226       -0.0455072637
          -0.0639220871        0.0644958465        0.0461483703
           0.0413729947       -0.2682660837       -0.0639710310
           0.0692557273        0.5718849750        0.0587002620
          -0.1209884217        0.2491496814        0.0778581010
          -0.0000872131       -0.0302046125        0.0029277643
           0.0096022172        0.2076950286        0.3162803450
vibration 15
           0.1074796950       -0.0338660071        0.0630984064
           0.1455662885        0.3429713328        0.0773536369
          -0.0113562995        0.0014066569       -0.0087439644
          -0.0151598927        0.0104404896        0.0041274169
          -0.1883394520       -0.0988589904        0.1956952569
          -0.1832568035       -0.1176966523        0.0456717364
           0.0439735561        0.0357995219        0.0083142415
          -0.3249590655       -0.1703770621        0.2156631633
          -0.0897477458       -0.1631187659       -0.2462830381
           0.1634919831        0.4253213215       -0.1213823699
           0.1992284201       -0.3543404157        0.1319231915
          -0.0012346585        0.0267696249       -0.0021392940
           0.1230854072       -0.0464834899        0.0458677786
vibration 16
          -0.0039252370       -0.2480171965       -0.0373376994
           0.0186878674        0.1159494729       -0.0694368938
          -0.0325261746       -0.0178920820       -0.0177309601
          -0.0079384026       -0.0068402967       -0.0013578625
           0.0630743677       -0.0214824008        0.0082900635
          -0.0980364553       -0.0540881705        0.0570407474
          -0.0429292769       -0.0609226340        0.0636107210
          -0.0984660946       -0.0922554439        0.0586896851
          -0.0235601807        0.0308369870       -0.0256915486
           0.0098536380       -0.1331395032       -0.0114037393
           0.4361931685        0.5815972354        0.2721662163
          -0.0069952823       -0.0377486771       -0.0058110210
          -0.1174699619       -0.4570533050       -0.1348696207
vibration 17
          -0.2388002758        0.2415768501        0.1030940537
          -0.1159248117       -0.1698728530       -0.2188442436
          -0.0214883076       -0.0029755051       -0.0118909852
          -0.0164377507        0.0099770034       -0.0022349987
          -0.0824691818        0.0412106806       -0.0154998458
           0.1649293683        0.0903186947       -0.0692681241
           0.0443435410        0.0982480631       -0.0858377562
           0.2383834348        0.1924778604       -0.1563232602
           0.0309953743       -0.0250763423        0.0924199702
           0.0163116194        0.0747302155       -0.0798524679
           0.4705689968       -0.2764961384        0.2669733348
          -0.0049183004        0.0139783273       -0.0013843565
          -0.2371408700        0.3848494491       -0.0230606140
vibration 18
           0.1281971591        0.0242916293       -0.2070129276
          -0.0214517216       -0.0086891915       -0.0071007758
          -0.0016102931       -0.0003626611       -0.0042726776
           0.0058760725       -0.0022964021       -0.0036254055
           0.2919141399        0.1038532896       -0.0715479280
           0.0575402665        0.0590153633       -0.0626613540
           0.1881229678       -0.0309672866        0.0141361046
          -0.1439263320       -0.1492814732        0.1667948931
          -0.0569707891       -0.0187916757        0.0196567800
          -0.5168125197        0.0953211181        0.5421713415
          -0.1090947934       -0.0417349958        0.2830670058
           0.0011026820        0.0028714110       -0.0026179235
           0.0923726496       -0.0944030074       -0.1868300424
vibration 19
           0.0526789166        0.0463323967       -0.1378364186
          -0.0593511275       -0.0483553836       -0.0022277234
          -0.0003625439       -0.0000494336       -0.0017293020
           0.0024601156       -0.0009995064       -0.0013214495
          -0.2667818413       -0.1446466746        0.0059182665
          -0.1400320856       -0.1039160853        0.1431666322
          -0.3379610003       -0.0645585216        0.0715352669
           0.1563513481        0.1233403627       -0.2001528191
           0.1577802762        0.1045414663       -0.0522480865
           0.3920113724       -0.1179522257       -0.4328658658
          -0.0648212237       -0.0314310932        0.1631355864
           0.0005700998        0.0015300817       -0.0008767184
           0.0972589235        0.3343108230       -0.2782147779
vibration 20
          -0.0545355774        0.0360428750        0.0515973494
           0.0049647678       -0.0466081675       -0.0337497841
           0.0003132533        0.0002342507        0.0006437176
          -0.0003905226        0.0001908070       -0.0000282692
           0.1032988779        0.0238897054        0.2117965119
          -0.1473531282       -0.0647736169       -0.0140672601
           0.3430570495        0.1014290955       -0.0067102065
          -0.4293534803       -0.1544181262        0.3515697252
           0.1602860161        0.0909319449       -0.0433958898
          -0.3605601835       -0.0148931160        0.4946508721
           0.0208843189       -0.0185966861       -0.0383656057
          -0.0001347249       -0.0000604275        0.0006012468
          -0.1073035651       -0.1244910784        0.0877252361
vibration 21
           0.0082261787       -0.0568908668       -0.0161726460
          -0.0108054341        0.0184520077        0.0020893989
           0.0001457811       -0.0000758615       -0.0000160948
           0.0001905656       -0.0002884003        0.0001548973
          -0.4056792610       -0.1350183387        0.3704206485
           0.0528638216       -0.0974620847       -0.0699476316
           0.3876310206        0.3925408846       -0.2513020611
          -0.0474942184        0.2464756241        0.1210514493
          -0.0370726557        0.0305658246        0.0382275641
           0.0188813299       -0.0605521144       -0.0066327300
          -0.0108860779        0.0179944376        0.0156847029
           0.0000973738        0.0001681808       -0.0004108621
           0.1747889156        0.4175570757       -0.0134286586
vibration 22
           0.0135805148       -0.0597794085        0.0243724862
          -0.0585876570        0.0196182613       -0.0235375641
           0.0001060623       -0.0000526019        0.0000673075
          -0.0001892124       -0.0000539392        0.0002147807
           0.3751687197        0.1402303940       -0.1257420253
          -0.0511027624        0.0616525599       -0.0283732108
           0.0944859239       -0.1294394060        0.0914942648
          -0.1778325583       -0.2237169611        0.0937007315
           0.0364790200       -0.0589082477        0.0153582232
           0.1352819205       -0.0902279394       -0.0825386396
           0.0025116314        0.0184816001       -0.0012551060
          -0.0000023018        0.0000056145       -0.0002340446
           0.3473328758        0.6922570884        0.2117159379
vibration 23
          -0.0190473178       -0.0501690913        0.0126081457
          -0.0064635317        0.0074106780       -0.0147334886
           0.0002101193       -0.0000073816        0.0002535562
          -0.0001196793        0.0000463485       -0.0000345359
          -0.1487492149       -0.0836815658       -0.1137770505
           0.0402983706       -0.0171022609        0.0866473891
          -0.2966143869       -0.0135562798        0.0185202297
           0.3118128602        0.1701589689       -0.2309169922
           0.0039062310        0.0119966020       -0.0780175037
          -0.4560368163        0.0704021011        0.4750373842
           0.0132302368        0.0039588272       -0.0160230083
          -0.0000722165        0.0001368137       -0.0000335946
           0.2181839668        0.2887559440        0.3176066827
vibration 24
           0.0948201427        0.0249257615       -0.0384042959
          -0.0959623276       -0.0086690270       -0.0254597268
          -0.0005943230       -0.0001062071       -0.0005561902
          -0.0005099353        0.0003211609       -0.0000017315
          -0.0835037443       -0.0189596797        0.0896714363
           0.0022618091       -0.0134688574       -0.0123628614
          -0.0178795220       -0.0091037874       -0.0125006555
          -0.0568182660        0.0140185234        0.0655874177
          -0.0089513525        0.0353981330        0.0173352818
           0.1509843121        0.0675677693       -0.1261603828
           0.0280404106       -0.0171600734       -0.0051235078
          -0.0001707198        0.0000387326        0.0002377960
           0.2823008415       -0.4296915373        0.8028912323
vibration 25
           0.1562221924       -0.0283036415        0.1554169390
          -0.0924553540       -0.0077388218       -0.0790665248
          -0.0003234482       -0.0000744623       -0.0008000271
          -0.0002645584       -0.0001474188        0.0005892297
          -0.4607215651       -0.0778617988        0.0593454490
           0.0792498129        0.0330022659       -0.0192107236
          -0.4405488191       -0.2012023808        0.0073491107
          -0.2565538679       -0.2612323619        0.3544422893
           0.0048991156        0.0215305918       -0.0263424821
           0.0465035302        0.1439064844        0.1370834990
          -0.0180722456        0.0101056153       -0.0069644150
           0.0000855169       -0.0002314929       -0.0000205234
          -0.0482921762        0.0367348334       -0.4060491742
vibration 26
           0.1253852826        0.0054666966        0.1104851871
          -0.0713877216       -0.0094779146       -0.0576778624
          -0.0001691056       -0.0000538005       -0.0006487146
          -0.0000919579       -0.0000106643        0.0003221939
           0.5742245789        0.0565475761       -0.1459150592
          -0.0580864806       -0.0673226505        0.0330829311
           0.1495715019        0.3629926182       -0.1412978411
           0.1760120304        0.5016643299       -0.1747758750
          -0.0258592771       -0.0112259104       -0.0040509598
           0.0411530631        0.2199052449        0.0570118139
          -0.0114192422        0.0031490198       -0.0075035189
           0.0000176086       -0.0003205141        0.0001704463
          -0.0438651979       -0.0833656363       -0.2232182105
vibration 27
           0.0257122812       -0.0067641811        0.0234488562
          -0.0130413962       -0.0012258471       -0.0119274188
           0.0000291085       -0.0000104492       -0.0000739612
           0.0000037514       -0.0000077967        0.0000978303
           0.0172463014        0.1064141381        0.6191792699
          -0.0267040688        0.0179073129       -0.0392746488
           0.2291971743       -0.5436472151        0.3051894361
           0.2042630025        0.1603966557       -0.2873478855
          -0.0094610395        0.0061408292       -0.0136319408
          -0.0322489163        0.0483315650        0.0356154761
          -0.0040812841        0.0012384280       -0.0009930772
           0.0000169102        0.0000011122       -0.0000112529
          -0.0048206600        0.0044170810       -0.0677192303
vibration 28
           0.0387920910        0.0010556563        0.0306107600
          -0.0223470330       -0.0027054351       -0.0176129315
          -0.0000635621        0.0000145555       -0.0001663243
          -0.0000553453       -0.0000160712        0.0001118323
          -0.3105725873       -0.0893751919       -0.2732302921
          -0.0320668691        0.0273723989        0.0396143816
           0.5504154803        0.1274225674        0.0756130490
           0.2192004899       -0.5334401740       -0.3842019184
          -0.0095192316        0.0107305127        0.0037966040
           0.0065785105        0.0667021226        0.0362565122
          -0.0025416606        0.0007205403       -0.0026758037
           0.0000252528       -0.0000754989        0.0000520378
          -0.0023604206       -0.0397097860       -0.0392684212
vibration 29
          -0.0034644626        0.0393019991       -0.0079142108
          -0.0065159368        0.0126231688       -0.0071726401
          -0.0000344300       -0.0000284106       -0.0000250880
           0.0000315688        0.0000165336       -0.0000500058
           0.0103921990       -0.0070834706        0.0044087352
           0.0033600384       -0.0023518303        0.0055337911
           0.0027002282        0.0079822026        0.0125375866
           0.0269125920        0.0243534386       -0.0289536151
          -0.0326075319       -0.0080089440       -0.0291046346
           0.6167071936       -0.4902629259        0.6094413719
          -0.0002284900       -0.0012990888       -0.0000989547
          -0.0000205814       -0.0001206141        0.0000950119
          -0.0299947312       -0.0223368481        0.0062743830
vibration 30
          -0.0741870684        0.0258613220        0.0313227242
          -0.0002763964       -0.0000956821       -0.0014068947
           0.0000837297        0.0000074112        0.0000334823
           0.0000828643       -0.0000329905       -0.0000867034
           0.0043646524       -0.0039570928       -0.0017103634
           0.0011908547       -0.0008034354       -0.0013162357
          -0.0045268359        0.0158247147        0.0262642264
          -0.0141736917        0.0031232564       -0.0110571786
           0.0011321828        0.0003868606        0.0002567840
          -0.0053029235       -0.0187289688        0.0061114237
          -0.0014448886        0.0009187292        0.0001809598
           0.0000148924       -0.0000392978       -0.0000075251
           0.8782028981       -0.3051019948       -0.3560350265
vibration 31
           0.0020555879       -0.0026804625       -0.0010409323
           0.0003785169        0.0003950625        0.0002764762
          -0.0000035033       -0.0000012397       -0.0000005527
          -0.0000035892        0.0000038969        0.0000030650
           0.0906039761       -0.4158391117        0.0489430204
           0.0305965812        0.0011400384       -0.0382123050
          -0.1253469425        0.3522783387        0.6884588820
          -0.3487740074        0.0418121957       -0.2749554145
           0.0017343773        0.0012796486       -0.0000278788
          -0.0102134327       -0.0014202377       -0.0101620549
          -0.0000010547        0.0000718189        0.0000298091
          -0.0000021805        0.0000053328       -0.0000001398
          -0.0278478532        0.0134507079        0.0106110073
vibration 32
           0.0006390824        0.0001188487       -0.0002876506
           0.0001417644        0.0001549369        0.0001212503
           0.0000069172        0.0000003178       -0.0000105885
          -0.0000018231        0.0000027420        0.0000005130
          -0.1221982301        0.5167095551       -0.0831236639
          -0.0209549620       -0.0602030944       -0.0667869551
          -0.0957846916        0.2699062734        0.5260392823
           0.4636916622       -0.0755309953        0.3509018570
          -0.0002120556       -0.0001949550        0.0002164977
           0.0031320484        0.0022270560       -0.0019237372
          -0.0000543979       -0.0000285038        0.0000447213
          -0.0000012383        0.0000048197        0.0000050550
          -0.0054817437        0.0024584279        0.0012524437
vibration 33
           0.0009550376       -0.0001914250       -0.0004858778
          -0.0000293148       -0.0000183221        0.0000060502
          -0.0000055356       -0.0000097251        0.0000119221
          -0.0000003859        0.0000026920        0.0000009336
          -0.1550207723        0.7067945771       -0.0865603472
           0.0571875079       -0.0646451104        0.0411081156
           0.0077198355       -0.0060862136        0.0165364945
          -0.5300596713        0.0637957956       -0.4174537689
          -0.0001983215        0.0002976839       -0.0001542198
          -0.0032079386       -0.0019711424        0.0023822268
          -0.0000105929        0.0000775950       -0.0000381488
           0.0000000940        0.0000033578        0.0000008286
          -0.0075295766        0.0043947126        0.0031476022
