
    -----------------------------------------------------------------------
          Psi4: An Open-Source Ab Initio Electronic Structure Package
                               Psi4 1.2.1 release

                         Git: Rev {HEAD} 406f4de 


    R. M. Parrish, L. A. Burns, D. G. A. Smith, A. C. Simmonett,
    A. E. DePrince III, E. G. Hohenstein, U. Bozkaya, A. Yu. Sokolov,
    R. Di Remigio, R. M. Richard, J. F. Gonthier, A. M. James,
    H. R. McAlexander, A. Kumar, M. Saitow, X. Wang, B. P. Pritchard,
    P. Verma, H. F. Schaefer III, K. Patkowski, R. A. King, E. F. Valeev,
    F. A. Evangelista, J. M. Turney, T. D. Crawford, and C. D. Sherrill,
    J. Chem. Theory Comput. 13(7) pp 3185--3197 (2017).
    (doi: 10.1021/acs.jctc.7b00174)


                         Additional Contributions by
    P. Kraus, H. Kruse, M. H. Lechner, M. C. Schieber, and R. A. Shaw

    -----------------------------------------------------------------------


    Psi4 started on: Monday, 21 January 2019 04:07PM

    Process ID: 20313
    Host:       localhost.localdomain
    PSIDATADIR: /root/psi4conda/share/psi4
    Memory:     500.0 MiB
    Threads:    1
    
  ==> Input File <==

--------------------------------------------------------------------------
molecule{
0 1
    C            0.114283081192     0.298323411498    -1.564720926966
    O           -0.933681714310     0.226443626216    -2.322251970436
    BR           1.580252119363     0.458193703415     0.882876240334
    BR          -1.600513027011     0.641580279657     0.721348752976
    H            1.102963053972     3.543527418724    -2.364951299416
    C            1.328503584354     2.488956786040    -2.221025454663
    H            1.512594980897     2.004222447527    -3.183073665180
    H            2.188708050801     2.377883092360    -1.563589714819
    O            0.196626601110     1.892005232910    -1.574124173045
    H           -0.682114071540     1.574898707014    -2.216542845479
    C           -0.017197409137    -0.116679636361    -0.076066820895
    BR          -0.113721455507    -2.055962672289    -0.083413764549
    H            1.092768890340    -0.045313121271    -1.939602914483
 
}

basis {
  assign 6-311ppgss
  assign Br def2-tzvpp
}

set{
   freeze_core True
   normal_modes_write True
}


set_num_threads(16)
frequencies('m06-2x')
--------------------------------------------------------------------------
  Threads set to 16 by Python driver.
gradient() will perform analytic gradient computation.

*** tstart() called on localhost.localdomain
*** at Mon Jan 21 16:07:47 2019

   => Loading Basis Set <=

    Name: ANONYMOUSFF384441
    Role: ORBITAL
    Keyword: BASIS
    atoms 1, 6, 11       entry C          line   119 file /root/psi4conda/share/psi4/basis/6-311ppgss.gbs 
    atoms 2, 9           entry O          line   161 file /root/psi4conda/share/psi4/basis/6-311ppgss.gbs 
    atoms 3-4, 12        entry BR         line  1545 file /root/psi4conda/share/psi4/basis/def2-tzvpp.gbs 
    atoms 5, 7-8, 10, 13 entry H          line    42 file /root/psi4conda/share/psi4/basis/6-311ppgss.gbs 


         ---------------------------------------------------------
                                   SCF
            by Justin Turney, Rob Parrish, Andy Simmonett
                             and Daniel Smith
                              RKS Reference
                       16 Threads,    500 MiB Core
         ---------------------------------------------------------

  ==> Geometry <==

    Molecular point group: c1
    Full point group: C1

    Geometry (in Angstrom), charge = 0, multiplicity = 1:

       Center              X                  Y                   Z               Mass       
    ------------   -----------------  -----------------  -----------------  -----------------
         C            0.114283081192     0.298323411498    -1.564720926966    12.000000000000
         O           -0.933681714310     0.226443626216    -2.322251970436    15.994914619560
         BR           1.580252119363     0.458193703415     0.882876240334    78.918337087000
         BR          -1.600513027011     0.641580279657     0.721348752976    78.918337087000
         H            1.102963053972     3.543527418724    -2.364951299416     1.007825032070
         C            1.328503584354     2.488956786040    -2.221025454663    12.000000000000
         H            1.512594980897     2.004222447527    -3.183073665180     1.007825032070
         H            2.188708050801     2.377883092360    -1.563589714819     1.007825032070
         O            0.196626601110     1.892005232910    -1.574124173045    15.994914619560
         H           -0.682114071540     1.574898707014    -2.216542845479     1.007825032070
         C           -0.017197409137    -0.116679636361    -0.076066820895    12.000000000000
         BR          -0.113721455507    -2.055962672289    -0.083413764549    78.918337087000
         H            1.092768890340    -0.045313121271    -1.939602914483     1.007825032070

  Running in c1 symmetry.

  Rotational constants: A =      0.02237  B =      0.01873  C =      0.01668 [cm^-1]
  Rotational constants: A =    670.63539  B =    561.44452  C =    500.13960 [MHz]
  Nuclear repulsion = 1469.168178592634376

  Charge       = 0
  Multiplicity = 1
  Electrons    = 144
  Nalpha       = 72
  Nbeta        = 72

  ==> Algorithm <==

  SCF Algorithm Type is DF.
  DIIS enabled.
  MOM disabled.
  Fractional occupation disabled.
  Guess Type is SAD.
  Energy threshold   = 1.00e-08
  Density threshold  = 1.00e-08
  Integral threshold = 0.00e+00

  ==> Primary Basis <==

  Basis Set: ANONYMOUSFF384441
    Blend: 6-311PPGSS + DEF2-TZVPP
    Number of shells: 123
    Number of basis function: 289
    Number of Cartesian functions: 315
    Spherical Harmonics?: true
    Max angular momentum: 3

  ==> DFT Potential <==

   => Composite Functional: M06-2X <= 

    Hybrid M06-2X Meta-GGA XC Functional

    Y. Zhao and D. G. Truhlar,  Theor. Chem. Acc., 120, 215, 2008


    Deriv               =              1
    GGA                 =           TRUE
    Meta                =           TRUE

    Exchange Hybrid     =           TRUE
    MP2 Hybrid          =          FALSE

   => Exchange Functionals <=

    1.0000   XC_HYB_MGGA_X_M06_2X

   => Exact (HF) Exchange <=

    0.5400               HF 

   => Correlation Functionals <=

    1.0000   XC_MGGA_C_M06_2X

   => Molecular Quadrature <=

    Radial Scheme       =       TREUTLER
    Pruning Scheme      =           FLAT
    Nuclear Scheme      =       TREUTLER

    BS radius alpha     =              1
    Pruning alpha       =              1
    Radial Points       =             75
    Spherical Points    =            302
    Total Points        =         294004
    Total Blocks        =           2269
    Max Points          =            256
    Max Functions       =            249

   => Loading Basis Set <=

    Name: (ANONYMOUSFF384441 AUX)
    Role: JKFIT
    Keyword: DF_BASIS_SCF
    atoms 1, 6, 11       entry C          line   162 file /root/psi4conda/share/psi4/basis/aug-cc-pvtz-jkfit.gbs 
    atoms 2, 9           entry O          line   286 file /root/psi4conda/share/psi4/basis/aug-cc-pvtz-jkfit.gbs 
    atoms 3-4, 12        entry BR         line  3129 file /root/psi4conda/share/psi4/basis/def2-tzvpp-jkfit.gbs 
    atoms 5, 7-8, 10, 13 entry H          line    70 file /root/psi4conda/share/psi4/basis/aug-cc-pvtz-jkfit.gbs 

  ==> Pre-Iterations <==

   -------------------------------------------------------
    Irrep   Nso     Nmo     Nalpha   Nbeta   Ndocc  Nsocc
   -------------------------------------------------------
     A        289     289       0       0       0       0
   -------------------------------------------------------
    Total     289     289      72      72      72       0
   -------------------------------------------------------

  ==> Integral Setup <==

  ==> DiskDFJK: Density-Fitted J/K Matrices <==

    J tasked:                  Yes
    K tasked:                  Yes
    wK tasked:                  No
    OpenMP threads:             16
    Integrals threads:          16
    Memory (MB):               375
    Algorithm:                Disk
    Integral Cache:           NONE
    Schwarz Cutoff:          1E-12
    Fitting Condition:       1E-12

   => Auxiliary Basis Set <=

  Basis Set: (ANONYMOUSFF384441 AUX)
    Blend: AUG-CC-PVTZ-JKFIT + DEF2-TZVPP-JKFIT
    Number of shells: 400
    Number of basis function: 1548
    Number of Cartesian functions: 2043
    Spherical Harmonics?: true
    Max angular momentum: 5

  Minimum eigenvalue in the overlap matrix is 5.1456847124E-05.
  Using Symmetric Orthogonalization.

  SCF Guess: Superposition of Atomic Densities via on-the-fly atomic UHF.

  ==> Iterations <==

                           Total Energy        Delta E     RMS |[F,P]|

   @DF-RKS iter   0: -7991.51861677841225   -7.99152e+03   7.36645e-02 
   @DF-RKS iter   1: -7989.79776248594226    1.72085e+00   2.06961e-02 
   @DF-RKS iter   2: -7989.62940217762025    1.68360e-01   2.10836e-02 DIIS
   @DF-RKS iter   3: -7990.14479619960912   -5.15394e-01   6.35981e-03 DIIS
   @DF-RKS iter   4: -7990.23214267378535   -8.73465e-02   6.78075e-04 DIIS
   @DF-RKS iter   5: -7990.23340368886602   -1.26102e-03   3.11522e-04 DIIS
   @DF-RKS iter   6: -7990.23363346632868   -2.29777e-04   1.03022e-04 DIIS
   @DF-RKS iter   7: -7990.23366375126989   -3.02849e-05   3.66096e-05 DIIS
   @DF-RKS iter   8: -7990.23366783484926   -4.08358e-06   1.80605e-05 DIIS
   @DF-RKS iter   9: -7990.23366867921504   -8.44366e-07   3.41737e-06 DIIS
   @DF-RKS iter  10: -7990.23366872785482   -4.86398e-08   1.37994e-06 DIIS
   @DF-RKS iter  11: -7990.23366873405121   -6.19639e-09   3.09742e-07 DIIS
   @DF-RKS iter  12: -7990.23366873451960   -4.68390e-10   8.25795e-08 DIIS
   @DF-RKS iter  13: -7990.23366873455507   -3.54703e-11   3.32911e-08 DIIS
   @DF-RKS iter  14: -7990.23366873455961   -4.54747e-12   8.29309e-09 DIIS

  ==> Post-Iterations <==

    Orbital Energies [Eh]
    ---------------------

    Doubly Occupied:                                                      

       1A   -485.397129     2A   -485.392839     3A   -485.389381  
       4A    -63.382602     5A    -63.378274     6A    -63.374788  
       7A    -57.201043     8A    -57.198390     9A    -57.198327  
      10A    -57.196790    11A    -57.194018    12A    -57.193953  
      13A    -57.193335    14A    -57.190516    15A    -57.190478  
      16A    -19.713017    17A    -19.596576    18A    -10.711927  
      19A    -10.689609    20A    -10.626609    21A     -9.048003  
      22A     -9.043709    23A     -9.040211    24A     -6.872417  
      25A     -6.868408    26A     -6.865008    27A     -6.862722  
      28A     -6.862509    29A     -6.858254    30A     -6.858027  
      31A     -6.854680    32A     -6.854543    33A     -2.906240  
      34A     -2.902840    35A     -2.902614    36A     -2.902235  
      37A     -2.898862    38A     -2.898658    39A     -2.898425  
      40A     -2.895158    41A     -2.895020    42A     -2.893585  
      43A     -2.893576    44A     -2.888980    45A     -2.888972  
      46A     -2.885409    47A     -2.885398    48A     -1.255738  
      49A     -1.127702    50A     -0.984396    51A     -0.874590  
      52A     -0.872149    53A     -0.841465    54A     -0.791625  
      55A     -0.673616    56A     -0.653528    57A     -0.601461  
      58A     -0.580095    59A     -0.541131    60A     -0.524546  
      61A     -0.504535    62A     -0.478354    63A     -0.470793  
      64A     -0.461351    65A     -0.387461    66A     -0.385334  
      67A     -0.379776    68A     -0.366276    69A     -0.352535  
      70A     -0.348349    71A     -0.340000    72A     -0.336037  

    Virtual:                                                              

      73A     -0.031734    74A     -0.010088    75A      0.005786  
      76A      0.011433    77A      0.013491    78A      0.029807  
      79A      0.030969    80A      0.048000    81A      0.061605  
      82A      0.072647    83A      0.073832    84A      0.085748  
      85A      0.103536    86A      0.105936    87A      0.116625  
      88A      0.123610    89A      0.125717    90A      0.132520  
      91A      0.139928    92A      0.146938    93A      0.152232  
      94A      0.175697    95A      0.185655    96A      0.200860  
      97A      0.208488    98A      0.223358    99A      0.227365  
     100A      0.242205   101A      0.244789   102A      0.261384  
     103A      0.271453   104A      0.275919   105A      0.279071  
     106A      0.281753   107A      0.302625   108A      0.313469  
     109A      0.318092   110A      0.319112   111A      0.320405  
     112A      0.329760   113A      0.336812   114A      0.350638  
     115A      0.362046   116A      0.369018   117A      0.372298  
     118A      0.388185   119A      0.401289   120A      0.412244  
     121A      0.419583   122A      0.432646   123A      0.442802  
     124A      0.455160   125A      0.461114   126A      0.468597  
     127A      0.480823   128A      0.485641   129A      0.510054  
     130A      0.536567   131A      0.539238   132A      0.554520  
     133A      0.560722   134A      0.574040   135A      0.593505  
     136A      0.607235   137A      0.615667   138A      0.638273  
     139A      0.644793   140A      0.665681   141A      0.688754  
     142A      0.714577   143A      0.743506   144A      0.779540  
     145A      0.805559   146A      0.821365   147A      0.847737  
     148A      0.913323   149A      0.934430   150A      0.959962  
     151A      0.984451   152A      1.021177   153A      1.052285  
     154A      1.081141   155A      1.102536   156A      1.123358  
     157A      1.137694   158A      1.202987   159A      1.214100  
     160A      1.226355   161A      1.251566   162A      1.270923  
     163A      1.302266   164A      1.324197   165A      1.340514  
     166A      1.354492   167A      1.370367   168A      1.376943  
     169A      1.395212   170A      1.395323   171A      1.399766  
     172A      1.408839   173A      1.412129   174A      1.418392  
     175A      1.429158   176A      1.431059   177A      1.448042  
     178A      1.455210   179A      1.459382   180A      1.468359  
     181A      1.491786   182A      1.506588   183A      1.524374  
     184A      1.532345   185A      1.544933   186A      1.553229  
     187A      1.556596   188A      1.564941   189A      1.570995  
     190A      1.575900   191A      1.587754   192A      1.595404  
     193A      1.597015   194A      1.610396   195A      1.627750  
     196A      1.635390   197A      1.653899   198A      1.668786  
     199A      1.689161   200A      1.694451   201A      1.701148  
     202A      1.706361   203A      1.722816   204A      1.732929  
     205A      1.746785   206A      1.748287   207A      1.777680  
     208A      1.785299   209A      1.786298   210A      1.797435  
     211A      1.805648   212A      1.809841   213A      1.849999  
     214A      1.861918   215A      1.864849   216A      1.885988  
     217A      1.917616   218A      1.937452   219A      1.985600  
     220A      1.995690   221A      2.021977   222A      2.056193  
     223A      2.088984   224A      2.128532   225A      2.149767  
     226A      2.154299   227A      2.180581   228A      2.201864  
     229A      2.252288   230A      2.337866   231A      2.361702  
     232A      2.452930   233A      2.497845   234A      2.512108  
     235A      2.525959   236A      2.558377   237A      2.596566  
     238A      2.626843   239A      2.757239   240A      2.813329  
     241A      2.842371   242A      2.914618   243A      2.962972  
     244A      3.011797   245A      3.109962   246A      3.117222  
     247A      3.163480   248A      3.238074   249A      3.308495  
     250A      3.363974   251A      3.412172   252A      3.475500  
     253A      3.549642   254A      3.736655   255A      3.791557  
     256A      3.824840   257A      3.848339   258A      3.976331  
     259A      4.037325   260A      4.074005   261A      4.076535  
     262A      4.093667   263A      4.096380   264A      4.101106  
     265A      4.120279   266A      4.146845   267A      4.174273  
     268A      4.184165   269A      4.194339   270A      4.207792  
     271A      4.228452   272A      4.264674   273A      4.412239  
     274A      4.469510   275A      4.491698   276A      5.233003  
     277A      5.259410   278A      5.303062   279A      5.347787  
     280A      5.635861   281A      5.794593   282A      7.598245  
     283A      7.614911   284A      7.627717   285A     23.570016  
     286A     23.850174   287A     23.965554   288A     49.984238  
     289A     50.139957  

    Final Occupation by Irrep:
              A 
    DOCC [    72 ]

  Energy converged.

  @DF-RKS Final Energy: -7990.23366873455961

   => Energetics <=

    Nuclear Repulsion Energy =           1469.1681785926343764
    One-Electron Energy =              -14043.8624357922180934
    Two-Electron Energy =                4730.5012233542638569
    DFT Exchange-Correlation Energy =    -146.0406348892391009
    Empirical Dispersion Energy =           0.0000000000000000
    VV10 Nonlocal Energy =                  0.0000000000000000
    Total Energy =                      -7990.2336687345596147



Properties will be evaluated at   0.000000,   0.000000,   0.000000 [a0]

Properties computed using the SCF density matrix

  Nuclear Dipole Moment: [e a0]
     X:     6.0143      Y:    16.9316      Z:   -23.3972

  Electronic Dipole Moment: [e a0]
     X:    -4.8253      Y:   -15.8202      Z:    23.0111

  Dipole Moment: [e a0]
     X:     1.1890      Y:     1.1114      Z:    -0.3861     Total:     1.6727

  Dipole Moment: [D]
     X:     3.0221      Y:     2.8249      Z:    -0.9814     Total:     4.2517


*** tstop() called on localhost.localdomain at Mon Jan 21 16:08:12 2019
Module time:
	user time   =     358.40 seconds =       5.97 minutes
	system time =      12.20 seconds =       0.20 minutes
	total time  =         25 seconds =       0.42 minutes
Total time:
	user time   =     358.40 seconds =       5.97 minutes
	system time =      12.20 seconds =       0.20 minutes
	total time  =         25 seconds =       0.42 minutes

*** tstart() called on localhost.localdomain
*** at Mon Jan 21 16:08:12 2019


         ------------------------------------------------------------
                                   SCF GRAD                          
                          Rob Parrish, Justin Turney,                
                       Andy Simmonett, and Alex Sokolov              
         ------------------------------------------------------------

  ==> Geometry <==

    Molecular point group: c1
    Full point group: C1

    Geometry (in Angstrom), charge = 0, multiplicity = 1:

       Center              X                  Y                   Z               Mass       
    ------------   -----------------  -----------------  -----------------  -----------------
         C            0.114283081192     0.298323411498    -1.564720926966    12.000000000000
         O           -0.933681714310     0.226443626216    -2.322251970436    15.994914619560
         BR           1.580252119363     0.458193703415     0.882876240334    78.918337087000
         BR          -1.600513027011     0.641580279657     0.721348752976    78.918337087000
         H            1.102963053972     3.543527418724    -2.364951299416     1.007825032070
         C            1.328503584354     2.488956786040    -2.221025454663    12.000000000000
         H            1.512594980897     2.004222447527    -3.183073665180     1.007825032070
         H            2.188708050801     2.377883092360    -1.563589714819     1.007825032070
         O            0.196626601110     1.892005232910    -1.574124173045    15.994914619560
         H           -0.682114071540     1.574898707014    -2.216542845479     1.007825032070
         C           -0.017197409137    -0.116679636361    -0.076066820895    12.000000000000
         BR          -0.113721455507    -2.055962672289    -0.083413764549    78.918337087000
         H            1.092768890340    -0.045313121271    -1.939602914483     1.007825032070

  Nuclear repulsion = 1469.168178592634376

  ==> Basis Set <==

  Basis Set: ANONYMOUSFF384441
    Blend: 6-311PPGSS + DEF2-TZVPP
    Number of shells: 123
    Number of basis function: 289
    Number of Cartesian functions: 315
    Spherical Harmonics?: true
    Max angular momentum: 3

  ==> DFJKGrad: Density-Fitted SCF Gradients <==

    Gradient:                    1
    J tasked:                  Yes
    K tasked:                  Yes
    wK tasked:                  No
    OpenMP threads:             16
    Integrals threads:          16
    Memory (MB):               375
    Schwarz Cutoff:          0E+00
    Fitting Condition:       1E-12

   => Auxiliary Basis Set <=

  Basis Set: (ANONYMOUSFF384441 AUX)
    Blend: AUG-CC-PVTZ-JKFIT + DEF2-TZVPP-JKFIT
    Number of shells: 400
    Number of basis function: 1548
    Number of Cartesian functions: 2043
    Spherical Harmonics?: true
    Max angular momentum: 5

  ==> DFT Potential <==

   => Composite Functional: M06-2X <= 

    Hybrid M06-2X Meta-GGA XC Functional

    Y. Zhao and D. G. Truhlar,  Theor. Chem. Acc., 120, 215, 2008


    Deriv               =              1
    GGA                 =           TRUE
    Meta                =           TRUE

    Exchange Hybrid     =           TRUE
    MP2 Hybrid          =          FALSE

   => Exchange Functionals <=

    1.0000   XC_HYB_MGGA_X_M06_2X

   => Exact (HF) Exchange <=

    0.5400               HF 

   => Correlation Functionals <=

    1.0000   XC_MGGA_C_M06_2X

   => Molecular Quadrature <=

    Radial Scheme       =       TREUTLER
    Pruning Scheme      =           FLAT
    Nuclear Scheme      =       TREUTLER

    BS radius alpha     =              1
    Pruning alpha       =              1
    Radial Points       =             75
    Spherical Points    =            302
    Total Points        =         294004
    Total Blocks        =           2269
    Max Points          =            256
    Max Functions       =            249


  -Total Gradient:
     Atom            X                  Y                   Z
    ------   -----------------  -----------------  -----------------
       1        0.000061841673     0.000171011034    -0.000137904927
       2       -0.000042127481     0.000050706810    -0.000181478607
       3       -0.000048723824    -0.000035509713    -0.000161190991
       4        0.000001355925     0.000035589552    -0.000143769625
       5        0.000026606234     0.000052200410    -0.000086918427
       6        0.000025187115     0.000050460487    -0.000138303126
       7        0.000006708333     0.000055466286    -0.000104942578
       8        0.000009432694     0.000028313624    -0.000100411026
       9       -0.000006412931    -0.000090598778    -0.000097863202
      10        0.000050418962     0.000064157336    -0.000110728143
      11        0.000062744153     0.000008520349    -0.000128888801
      12       -0.000006327065     0.000061207050    -0.000211682633
      13       -0.000000490778     0.000044967006    -0.000175974073


*** tstop() called on localhost.localdomain at Mon Jan 21 16:08:21 2019
Module time:
	user time   =     119.60 seconds =       1.99 minutes
	system time =       3.42 seconds =       0.06 minutes
	total time  =          9 seconds =       0.15 minutes
Total time:
	user time   =     478.02 seconds =       7.97 minutes
	system time =      15.62 seconds =       0.26 minutes
	total time  =         34 seconds =       0.57 minutes

  Based on options and gradient (rms=1.68E-04), recommend projecting translations and projecting rotations.
hessian() will perform frequency computation by finite difference of analytic gradients.

-------------------------------------------------------------

  Using finite-differences of gradients to determine vibrational frequencies and 
  normal modes.  Resulting frequencies are only valid at stationary points.
	Generating geometries for use with 3-point formula.
	Displacement size will be 5.00e-03.
	Number of atoms is 13.
	Number of irreps is 1.
	Number of SALCS is 33.
	Translations projected? 1. Rotations projected? 1.
	Index of salcs per irrep:
	 1 :  0  1  2  3  4  5  6  7  8  9  10  11  12  13  14  15  16  17  18  19  20  21  22  23  24  25  26  27  28  29  30  31  32 
	Number of SALC's per irrep:
		 Irrep 1: 33
	Number of geometries (including reference) is 67.
	Number of displacements per irrep:
	  Irrep 1: 66

  //>>>>>>>>>>>>>>>>>>>>>>>>>>>>>>>>>>>//
  //    Loading displacement 1 of 67   //
  //<<<<<<<<<<<<<<<<<<<<<<<<<<<<<<<<<<<//
gradient() will perform analytic gradient computation.

*** tstart() called on localhost.localdomain
*** at Mon Jan 21 16:08:21 2019

   => Loading Basis Set <=

    Name: ANONYMOUSFF384441
    Role: ORBITAL
    Keyword: BASIS
    atoms 1, 6, 11       entry C          line   119 file /root/psi4conda/share/psi4/basis/6-311ppgss.gbs 
    atoms 2, 9           entry O          line   161 file /root/psi4conda/share/psi4/basis/6-311ppgss.gbs 
    atoms 3-4, 12        entry BR         line  1545 file /root/psi4conda/share/psi4/basis/def2-tzvpp.gbs 
    atoms 5, 7-8, 10, 13 entry H          line    42 file /root/psi4conda/share/psi4/basis/6-311ppgss.gbs 


         ---------------------------------------------------------
                                   SCF
            by Justin Turney, Rob Parrish, Andy Simmonett
                             and Daniel Smith
                              RKS Reference
                       16 Threads,    500 MiB Core
         ---------------------------------------------------------

  ==> Geometry <==

    Molecular point group: c1
    Full point group: C1

    Geometry (in Angstrom), charge = 0, multiplicity = 1:

       Center              X                  Y                   Z               Mass       
    ------------   -----------------  -----------------  -----------------  -----------------
         C            0.113549010780     0.298321624153    -1.564719085312    12.000000000000
         O           -0.933606925269     0.226442726134    -2.322269750228    15.994914619560
         BR           1.580267040082     0.458192099254     0.882905469011    78.918337087000
         BR          -1.600494779273     0.641583562350     0.721318014869    78.918337087000
         H            1.103043914658     3.543523239626    -2.364934207149     1.007825032070
         C            1.328580064953     2.488952396377    -2.221003041378    12.000000000000
         H            1.512688772015     2.004216778127    -3.183047294660     1.007825032070
         H            2.188771999261     2.377878010967    -1.563551021055     1.007825032070
         O            0.196689975739     1.892003305113    -1.574122419374    15.994914619560
         H           -0.682039127161     1.574897515803    -2.216557281228     1.007825032070
         C           -0.017165379441    -0.116679687107    -0.076067024356    12.000000000000
         BR          -0.113692368272    -2.055962577247    -0.083413791857    78.918337087000
         H            1.092836056277    -0.045316847659    -1.939582330728     1.007825032070

  Running in c1 symmetry.

  Rotational constants: A =      0.02237  B =      0.01873  C =      0.01668 [cm^-1]
  Rotational constants: A =    670.63329  B =    561.44944  C =    500.13902 [MHz]
  Nuclear repulsion = 1469.176887862549393

  Charge       = 0
  Multiplicity = 1
  Electrons    = 144
  Nalpha       = 72
  Nbeta        = 72

  ==> Algorithm <==

  SCF Algorithm Type is DF.
  DIIS enabled.
  MOM disabled.
  Fractional occupation disabled.
  Guess Type is SAD.
  Energy threshold   = 1.00e-08
  Density threshold  = 1.00e-08
  Integral threshold = 0.00e+00

  ==> Primary Basis <==

  Basis Set: ANONYMOUSFF384441
    Blend: 6-311PPGSS + DEF2-TZVPP
    Number of shells: 123
    Number of basis function: 289
    Number of Cartesian functions: 315
    Spherical Harmonics?: true
    Max angular momentum: 3

  ==> DFT Potential <==

   => Composite Functional: M06-2X <= 

    Hybrid M06-2X Meta-GGA XC Functional

    Y. Zhao and D. G. Truhlar,  Theor. Chem. Acc., 120, 215, 2008


    Deriv               =              1
    GGA                 =           TRUE
    Meta                =           TRUE

    Exchange Hybrid     =           TRUE
    MP2 Hybrid          =          FALSE

   => Exchange Functionals <=

    1.0000   XC_HYB_MGGA_X_M06_2X

   => Exact (HF) Exchange <=

    0.5400               HF 

   => Correlation Functionals <=

    1.0000   XC_MGGA_C_M06_2X

   => Molecular Quadrature <=

    Radial Scheme       =       TREUTLER
    Pruning Scheme      =           FLAT
    Nuclear Scheme      =       TREUTLER

    BS radius alpha     =              1
    Pruning alpha       =              1
    Radial Points       =             75
    Spherical Points    =            302
    Total Points        =         294004
    Total Blocks        =           2268
    Max Points          =            256
    Max Functions       =            249

   => Loading Basis Set <=

    Name: (ANONYMOUSFF384441 AUX)
    Role: JKFIT
    Keyword: DF_BASIS_SCF
    atoms 1, 6, 11       entry C          line   162 file /root/psi4conda/share/psi4/basis/aug-cc-pvtz-jkfit.gbs 
    atoms 2, 9           entry O          line   286 file /root/psi4conda/share/psi4/basis/aug-cc-pvtz-jkfit.gbs 
    atoms 3-4, 12        entry BR         line  3129 file /root/psi4conda/share/psi4/basis/def2-tzvpp-jkfit.gbs 
    atoms 5, 7-8, 10, 13 entry H          line    70 file /root/psi4conda/share/psi4/basis/aug-cc-pvtz-jkfit.gbs 

  ==> Pre-Iterations <==

   -------------------------------------------------------
    Irrep   Nso     Nmo     Nalpha   Nbeta   Ndocc  Nsocc
   -------------------------------------------------------
     A        289     289       0       0       0       0
   -------------------------------------------------------
    Total     289     289      72      72      72       0
   -------------------------------------------------------

  ==> Integral Setup <==

  ==> DiskDFJK: Density-Fitted J/K Matrices <==

    J tasked:                  Yes
    K tasked:                  Yes
    wK tasked:                  No
    OpenMP threads:             16
    Integrals threads:          16
    Memory (MB):               375
    Algorithm:                Disk
    Integral Cache:           NONE
    Schwarz Cutoff:          1E-12
    Fitting Condition:       1E-12

   => Auxiliary Basis Set <=

  Basis Set: (ANONYMOUSFF384441 AUX)
    Blend: AUG-CC-PVTZ-JKFIT + DEF2-TZVPP-JKFIT
    Number of shells: 400
    Number of basis function: 1548
    Number of Cartesian functions: 2043
    Spherical Harmonics?: true
    Max angular momentum: 5

  Minimum eigenvalue in the overlap matrix is 5.1460403316E-05.
  Using Symmetric Orthogonalization.

  SCF Guess: Superposition of Atomic Densities via on-the-fly atomic UHF.

  ==> Iterations <==

                           Total Energy        Delta E     RMS |[F,P]|

   @DF-RKS iter   0: -7991.47098793110399   -7.99147e+03   6.64580e-02 
   @DF-RKS iter   1: -7989.69984872318855    1.77114e+00   2.02447e-02 
   @DF-RKS iter   2: -7989.24347891171419    4.56370e-01   2.46774e-02 DIIS
   @DF-RKS iter   3: -7990.12375944680116   -8.80281e-01   6.74086e-03 DIIS
   @DF-RKS iter   4: -7990.23064347080981   -1.06884e-01   9.33641e-04 DIIS
   @DF-RKS iter   5: -7990.23331755785148   -2.67409e-03   3.93387e-04 DIIS
   @DF-RKS iter   6: -7990.23364538520491   -3.27827e-04   8.19924e-05 DIIS
   @DF-RKS iter   7: -7990.23366552046991   -2.01353e-05   1.92993e-05 DIIS
   @DF-RKS iter   8: -7990.23366763330432   -2.11283e-06   1.03539e-05 DIIS
   @DF-RKS iter   9: -7990.23366790956425   -2.76260e-07   5.03170e-06 DIIS
   @DF-RKS iter  10: -7990.23366798202642   -7.24622e-08   1.38723e-06 DIIS
   @DF-RKS iter  11: -7990.23366798807456   -6.04814e-09   3.80535e-07 DIIS
   @DF-RKS iter  12: -7990.23366798870848   -6.33918e-10   8.77274e-08 DIIS
   @DF-RKS iter  13: -7990.23366798876123   -5.27507e-11   3.47444e-08 DIIS
   @DF-RKS iter  14: -7990.23366798876941   -8.18545e-12   9.26563e-09 DIIS

  ==> Post-Iterations <==

    Orbital Energies [Eh]
    ---------------------

    Doubly Occupied:                                                      

       1A   -485.397138     2A   -485.392835     3A   -485.389362  
       4A    -63.382610     5A    -63.378271     6A    -63.374771  
       7A    -57.201051     8A    -57.198398     9A    -57.198335  
      10A    -57.196787    11A    -57.194015    12A    -57.193949  
      13A    -57.193317    14A    -57.190498    15A    -57.190461  
      16A    -19.712966    17A    -19.596658    18A    -10.711907  
      19A    -10.689619    20A    -10.626594    21A     -9.048011  
      22A     -9.043705    23A     -9.040193    24A     -6.872425  
      25A     -6.868404    26A     -6.864989    27A     -6.862730  
      28A     -6.862516    29A     -6.858250    30A     -6.858024  
      31A     -6.854663    32A     -6.854526    33A     -2.906249  
      34A     -2.902848    35A     -2.902622    36A     -2.902232  
      37A     -2.898843    38A     -2.898654    39A     -2.898421  
      40A     -2.895140    41A     -2.895002    42A     -2.893591  
      43A     -2.893582    44A     -2.888976    45A     -2.888969  
      46A     -2.885392    47A     -2.885382    48A     -1.255796  
      49A     -1.127972    50A     -0.984402    51A     -0.874587  
      52A     -0.872142    53A     -0.841471    54A     -0.791559  
      55A     -0.673545    56A     -0.653544    57A     -0.601421  
      58A     -0.580080    59A     -0.541150    60A     -0.524641  
      61A     -0.504527    62A     -0.478358    63A     -0.470825  
      64A     -0.461318    65A     -0.387453    66A     -0.385346  
      67A     -0.379819    68A     -0.366317    69A     -0.352527  
      70A     -0.348368    71A     -0.340009    72A     -0.336048  

    Virtual:                                                              

      73A     -0.031730    74A     -0.010083    75A      0.005786  
      76A      0.011437    77A      0.013502    78A      0.029807  
      79A      0.030981    80A      0.048005    81A      0.061617  
      82A      0.072664    83A      0.073837    84A      0.085747  
      85A      0.103542    86A      0.105932    87A      0.116635  
      88A      0.123609    89A      0.125713    90A      0.132500  
      91A      0.139933    92A      0.146941    93A      0.152238  
      94A      0.175702    95A      0.185647    96A      0.200874  
      97A      0.208487    98A      0.223379    99A      0.227392  
     100A      0.242202   101A      0.244798   102A      0.261386  
     103A      0.271448   104A      0.275933   105A      0.279063  
     106A      0.281766   107A      0.302625   108A      0.313455  
     109A      0.318097   110A      0.319106   111A      0.320408  
     112A      0.329740   113A      0.336818   114A      0.350661  
     115A      0.362077   116A      0.369030   117A      0.372269  
     118A      0.388220   119A      0.401305   120A      0.412259  
     121A      0.419573   122A      0.432651   123A      0.442818  
     124A      0.455188   125A      0.461130   126A      0.468599  
     127A      0.480840   128A      0.485678   129A      0.510124  
     130A      0.536633   131A      0.539242   132A      0.554484  
     133A      0.560729   134A      0.574048   135A      0.593510  
     136A      0.607247   137A      0.615676   138A      0.638219  
     139A      0.644737   140A      0.665703   141A      0.688781  
     142A      0.714617   143A      0.743604   144A      0.779536  
     145A      0.805572   146A      0.821397   147A      0.847730  
     148A      0.913332   149A      0.934429   150A      0.959967  
     151A      0.984439   152A      1.021184   153A      1.052287  
     154A      1.081127   155A      1.102501   156A      1.123360  
     157A      1.137717   158A      1.203010   159A      1.214124  
     160A      1.226309   161A      1.251539   162A      1.270934  
     163A      1.302295   164A      1.324215   165A      1.340556  
     166A      1.354462   167A      1.370379   168A      1.376905  
     169A      1.395218   170A      1.395322   171A      1.399775  
     172A      1.408836   173A      1.412133   174A      1.418390  
     175A      1.429156   176A      1.431054   177A      1.448040  
     178A      1.455216   179A      1.459372   180A      1.468342  
     181A      1.491817   182A      1.506503   183A      1.524302  
     184A      1.532344   185A      1.544954   186A      1.553240  
     187A      1.556568   188A      1.564950   189A      1.571001  
     190A      1.575887   191A      1.587766   192A      1.595408  
     193A      1.597019   194A      1.610386   195A      1.627732  
     196A      1.635371   197A      1.653914   198A      1.668739  
     199A      1.689167   200A      1.694447   201A      1.701211  
     202A      1.706383   203A      1.722858   204A      1.732916  
     205A      1.746773   206A      1.748273   207A      1.777681  
     208A      1.785296   209A      1.786299   210A      1.797464  
     211A      1.805715   212A      1.809832   213A      1.849992  
     214A      1.861931   215A      1.864847   216A      1.885976  
     217A      1.917544   218A      1.937403   219A      1.985798  
     220A      1.995694   221A      2.021941   222A      2.056167  
     223A      2.088915   224A      2.128543   225A      2.149675  
     226A      2.154405   227A      2.180645   228A      2.201864  
     229A      2.252354   230A      2.337892   231A      2.361709  
     232A      2.452939   233A      2.497854   234A      2.511495  
     235A      2.525972   236A      2.558071   237A      2.596622  
     238A      2.626807   239A      2.757229   240A      2.813331  
     241A      2.842485   242A      2.914543   243A      2.963093  
     244A      3.011898   245A      3.110314   246A      3.117143  
     247A      3.163473   248A      3.238720   249A      3.308750  
     250A      3.364080   251A      3.412743   252A      3.476124  
     253A      3.549679   254A      3.736578   255A      3.791244  
     256A      3.824844   257A      3.848179   258A      3.976336  
     259A      4.037269   260A      4.074002   261A      4.076532  
     262A      4.093666   263A      4.096321   264A      4.101115  
     265A      4.120304   266A      4.146771   267A      4.174255  
     268A      4.184168   269A      4.194325   270A      4.207795  
     271A      4.228408   272A      4.264675   273A      4.412290  
     274A      4.469538   275A      4.491688   276A      5.232995  
     277A      5.259435   278A      5.303055   279A      5.347801  
     280A      5.635921   281A      5.795092   282A      7.598276  
     283A      7.614904   284A      7.627727   285A     23.570088  
     286A     23.850132   287A     23.965573   288A     49.984286  
     289A     50.140102  

    Final Occupation by Irrep:
              A 
    DOCC [    72 ]

  Energy converged.

  @DF-RKS Final Energy: -7990.23366798876941

   => Energetics <=

    Nuclear Repulsion Energy =           1469.1768878625493926
    One-Electron Energy =              -14043.8793853066017618
    Two-Electron Energy =                4730.5095453497769995
    DFT Exchange-Correlation Energy =    -146.0407158944946673
    Empirical Dispersion Energy =           0.0000000000000000
    VV10 Nonlocal Energy =                  0.0000000000000000
    Total Energy =                      -7990.2336679887694117



Properties will be evaluated at   0.000000,   0.000000,   0.000000 [a0]

Properties computed using the SCF density matrix

  Nuclear Dipole Moment: [e a0]
     X:     6.0141      Y:    16.9316      Z:   -23.3971

  Electronic Dipole Moment: [e a0]
     X:    -4.8260      Y:   -15.8204      Z:    23.0105

  Dipole Moment: [e a0]
     X:     1.1881      Y:     1.1112      Z:    -0.3866     Total:     1.6721

  Dipole Moment: [D]
     X:     3.0200      Y:     2.8244      Z:    -0.9826     Total:     4.2500


*** tstop() called on localhost.localdomain at Mon Jan 21 16:08:48 2019
Module time:
	user time   =     367.42 seconds =       6.12 minutes
	system time =      12.45 seconds =       0.21 minutes
	total time  =         27 seconds =       0.45 minutes
Total time:
	user time   =     845.68 seconds =      14.09 minutes
	system time =      28.09 seconds =       0.47 minutes
	total time  =         61 seconds =       1.02 minutes

*** tstart() called on localhost.localdomain
*** at Mon Jan 21 16:08:48 2019


         ------------------------------------------------------------
                                   SCF GRAD                          
                          Rob Parrish, Justin Turney,                
                       Andy Simmonett, and Alex Sokolov              
         ------------------------------------------------------------

  ==> Geometry <==

    Molecular point group: c1
    Full point group: C1

    Geometry (in Angstrom), charge = 0, multiplicity = 1:

       Center              X                  Y                   Z               Mass       
    ------------   -----------------  -----------------  -----------------  -----------------
         C            0.113549010780     0.298321624153    -1.564719085312    12.000000000000
         O           -0.933606925269     0.226442726134    -2.322269750228    15.994914619560
         BR           1.580267040082     0.458192099254     0.882905469011    78.918337087000
         BR          -1.600494779273     0.641583562350     0.721318014869    78.918337087000
         H            1.103043914658     3.543523239626    -2.364934207149     1.007825032070
         C            1.328580064953     2.488952396377    -2.221003041378    12.000000000000
         H            1.512688772015     2.004216778127    -3.183047294660     1.007825032070
         H            2.188771999261     2.377878010967    -1.563551021055     1.007825032070
         O            0.196689975739     1.892003305113    -1.574122419374    15.994914619560
         H           -0.682039127161     1.574897515803    -2.216557281228     1.007825032070
         C           -0.017165379441    -0.116679687107    -0.076067024356    12.000000000000
         BR          -0.113692368272    -2.055962577247    -0.083413791857    78.918337087000
         H            1.092836056277    -0.045316847659    -1.939582330728     1.007825032070

  Nuclear repulsion = 1469.176887862549393

  ==> Basis Set <==

  Basis Set: ANONYMOUSFF384441
    Blend: 6-311PPGSS + DEF2-TZVPP
    Number of shells: 123
    Number of basis function: 289
    Number of Cartesian functions: 315
    Spherical Harmonics?: true
    Max angular momentum: 3

  ==> DFJKGrad: Density-Fitted SCF Gradients <==

    Gradient:                    1
    J tasked:                  Yes
    K tasked:                  Yes
    wK tasked:                  No
    OpenMP threads:             16
    Integrals threads:          16
    Memory (MB):               375
    Schwarz Cutoff:          0E+00
    Fitting Condition:       1E-12

   => Auxiliary Basis Set <=

  Basis Set: (ANONYMOUSFF384441 AUX)
    Blend: AUG-CC-PVTZ-JKFIT + DEF2-TZVPP-JKFIT
    Number of shells: 400
    Number of basis function: 1548
    Number of Cartesian functions: 2043
    Spherical Harmonics?: true
    Max angular momentum: 5

  ==> DFT Potential <==

   => Composite Functional: M06-2X <= 

    Hybrid M06-2X Meta-GGA XC Functional

    Y. Zhao and D. G. Truhlar,  Theor. Chem. Acc., 120, 215, 2008


    Deriv               =              1
    GGA                 =           TRUE
    Meta                =           TRUE

    Exchange Hybrid     =           TRUE
    MP2 Hybrid          =          FALSE

   => Exchange Functionals <=

    1.0000   XC_HYB_MGGA_X_M06_2X

   => Exact (HF) Exchange <=

    0.5400               HF 

   => Correlation Functionals <=

    1.0000   XC_MGGA_C_M06_2X

   => Molecular Quadrature <=

    Radial Scheme       =       TREUTLER
    Pruning Scheme      =           FLAT
    Nuclear Scheme      =       TREUTLER

    BS radius alpha     =              1
    Pruning alpha       =              1
    Radial Points       =             75
    Spherical Points    =            302
    Total Points        =         294004
    Total Blocks        =           2268
    Max Points          =            256
    Max Functions       =            249


  -Total Gradient:
     Atom            X                  Y                   Z
    ------   -----------------  -----------------  -----------------
       1       -0.000959378541     0.000399534572    -0.000168129776
       2        0.000412732044     0.000104963738     0.000021095496
       3       -0.000027671894    -0.000033370944    -0.000120708392
       4        0.000026712272     0.000031834750    -0.000182002071
       5        0.000028460642     0.000052173841    -0.000087772419
       6        0.000029381261     0.000076978854    -0.000140512171
       7        0.000003708485     0.000056985124    -0.000106060103
       8        0.000010546657     0.000030184989    -0.000099926158
       9        0.000135403014    -0.000182458066    -0.000070765959
      10       -0.000008877898    -0.000063392107    -0.000127325044
      11        0.000156907578     0.000009573284    -0.000184100200
      12       -0.000008180870     0.000063802014    -0.000213945200
      13        0.000342024895    -0.000051380075    -0.000298137939


*** tstop() called on localhost.localdomain at Mon Jan 21 16:08:56 2019
Module time:
	user time   =     119.58 seconds =       1.99 minutes
	system time =       2.64 seconds =       0.04 minutes
	total time  =          8 seconds =       0.13 minutes
Total time:
	user time   =     965.29 seconds =      16.09 minutes
	system time =      30.73 seconds =       0.51 minutes
	total time  =         69 seconds =       1.15 minutes

  //>>>>>>>>>>>>>>>>>>>>>>>>>>>>>>>>>>>//
  //    Loading displacement 2 of 67   //
  //<<<<<<<<<<<<<<<<<<<<<<<<<<<<<<<<<<<//
gradient() will perform analytic gradient computation.

*** tstart() called on localhost.localdomain
*** at Mon Jan 21 16:08:57 2019

   => Loading Basis Set <=

    Name: ANONYMOUSFF384441
    Role: ORBITAL
    Keyword: BASIS
    atoms 1, 6, 11       entry C          line   119 file /root/psi4conda/share/psi4/basis/6-311ppgss.gbs 
    atoms 2, 9           entry O          line   161 file /root/psi4conda/share/psi4/basis/6-311ppgss.gbs 
    atoms 3-4, 12        entry BR         line  1545 file /root/psi4conda/share/psi4/basis/def2-tzvpp.gbs 
    atoms 5, 7-8, 10, 13 entry H          line    42 file /root/psi4conda/share/psi4/basis/6-311ppgss.gbs 


         ---------------------------------------------------------
                                   SCF
            by Justin Turney, Rob Parrish, Andy Simmonett
                             and Daniel Smith
                              RKS Reference
                       16 Threads,    500 MiB Core
         ---------------------------------------------------------

  ==> Geometry <==

    Molecular point group: c1
    Full point group: C1

    Geometry (in Angstrom), charge = 0, multiplicity = 1:

       Center              X                  Y                   Z               Mass       
    ------------   -----------------  -----------------  -----------------  -----------------
         C            0.115017151605     0.298325198843    -1.564722768619    12.000000000000
         O           -0.933756503351     0.226444526298    -2.322234190643    15.994914619560
         BR           1.580237198644     0.458195307576     0.882847011658    78.918337087000
         BR          -1.600531274749     0.641576996964     0.721379491083    78.918337087000
         H            1.102882193286     3.543531597822    -2.364968391682     1.007825032070
         C            1.328427103756     2.488961175703    -2.221047867948    12.000000000000
         H            1.512501189779     2.004228116927    -3.183100035699     1.007825032070
         H            2.188644102341     2.377888173753    -1.563628408583     1.007825032070
         O            0.196563226481     1.892007160707    -1.574125926716    15.994914619560
         H           -0.682189015919     1.574899898225    -2.216528409729     1.007825032070
         C           -0.017229438833    -0.116679585615    -0.076066617434    12.000000000000
         BR          -0.113750542742    -2.055962767331    -0.083413737241    78.918337087000
         H            1.092701724403    -0.045309394883    -1.939623498237     1.007825032070

  Running in c1 symmetry.

  Rotational constants: A =      0.02237  B =      0.01873  C =      0.01668 [cm^-1]
  Rotational constants: A =    670.63748  B =    561.43960  C =    500.14018 [MHz]
  Nuclear repulsion = 1469.159467873446374

  Charge       = 0
  Multiplicity = 1
  Electrons    = 144
  Nalpha       = 72
  Nbeta        = 72

  ==> Algorithm <==

  SCF Algorithm Type is DF.
  DIIS enabled.
  MOM disabled.
  Fractional occupation disabled.
  Guess Type is SAD.
  Energy threshold   = 1.00e-08
  Density threshold  = 1.00e-08
  Integral threshold = 0.00e+00

  ==> Primary Basis <==

  Basis Set: ANONYMOUSFF384441
    Blend: 6-311PPGSS + DEF2-TZVPP
    Number of shells: 123
    Number of basis function: 289
    Number of Cartesian functions: 315
    Spherical Harmonics?: true
    Max angular momentum: 3

  ==> DFT Potential <==

   => Composite Functional: M06-2X <= 

    Hybrid M06-2X Meta-GGA XC Functional

    Y. Zhao and D. G. Truhlar,  Theor. Chem. Acc., 120, 215, 2008


    Deriv               =              1
    GGA                 =           TRUE
    Meta                =           TRUE

    Exchange Hybrid     =           TRUE
    MP2 Hybrid          =          FALSE

   => Exchange Functionals <=

    1.0000   XC_HYB_MGGA_X_M06_2X

   => Exact (HF) Exchange <=

    0.5400               HF 

   => Correlation Functionals <=

    1.0000   XC_MGGA_C_M06_2X

   => Molecular Quadrature <=

    Radial Scheme       =       TREUTLER
    Pruning Scheme      =           FLAT
    Nuclear Scheme      =       TREUTLER

    BS radius alpha     =              1
    Pruning alpha       =              1
    Radial Points       =             75
    Spherical Points    =            302
    Total Points        =         294004
    Total Blocks        =           2272
    Max Points          =            256
    Max Functions       =            250

   => Loading Basis Set <=

    Name: (ANONYMOUSFF384441 AUX)
    Role: JKFIT
    Keyword: DF_BASIS_SCF
    atoms 1, 6, 11       entry C          line   162 file /root/psi4conda/share/psi4/basis/aug-cc-pvtz-jkfit.gbs 
    atoms 2, 9           entry O          line   286 file /root/psi4conda/share/psi4/basis/aug-cc-pvtz-jkfit.gbs 
    atoms 3-4, 12        entry BR         line  3129 file /root/psi4conda/share/psi4/basis/def2-tzvpp-jkfit.gbs 
    atoms 5, 7-8, 10, 13 entry H          line    70 file /root/psi4conda/share/psi4/basis/aug-cc-pvtz-jkfit.gbs 

  ==> Pre-Iterations <==

   -------------------------------------------------------
    Irrep   Nso     Nmo     Nalpha   Nbeta   Ndocc  Nsocc
   -------------------------------------------------------
     A        289     289       0       0       0       0
   -------------------------------------------------------
    Total     289     289      72      72      72       0
   -------------------------------------------------------

  ==> Integral Setup <==

  ==> DiskDFJK: Density-Fitted J/K Matrices <==

    J tasked:                  Yes
    K tasked:                  Yes
    wK tasked:                  No
    OpenMP threads:             16
    Integrals threads:          16
    Memory (MB):               375
    Algorithm:                Disk
    Integral Cache:           NONE
    Schwarz Cutoff:          1E-12
    Fitting Condition:       1E-12

   => Auxiliary Basis Set <=

  Basis Set: (ANONYMOUSFF384441 AUX)
    Blend: AUG-CC-PVTZ-JKFIT + DEF2-TZVPP-JKFIT
    Number of shells: 400
    Number of basis function: 1548
    Number of Cartesian functions: 2043
    Spherical Harmonics?: true
    Max angular momentum: 5

  Minimum eigenvalue in the overlap matrix is 5.1453313552E-05.
  Using Symmetric Orthogonalization.

  SCF Guess: Superposition of Atomic Densities via on-the-fly atomic UHF.

  ==> Iterations <==

                           Total Energy        Delta E     RMS |[F,P]|

   @DF-RKS iter   0: -7991.53529355346109   -7.99154e+03   7.24098e-02 
   @DF-RKS iter   1: -7989.76819273135698    1.76710e+00   2.09780e-02 
   @DF-RKS iter   2: -7989.55756459979966    2.10628e-01   2.03239e-02 DIIS
   @DF-RKS iter   3: -7990.14373027631609   -5.86166e-01   5.74447e-03 DIIS
   @DF-RKS iter   4: -7990.23080714722983   -8.70769e-02   9.68222e-04 DIIS
   @DF-RKS iter   5: -7990.23331770276582   -2.51056e-03   3.51408e-04 DIIS
   @DF-RKS iter   6: -7990.23364138054421   -3.23678e-04   7.64326e-05 DIIS
   @DF-RKS iter   7: -7990.23366384134715   -2.24608e-05   3.44643e-05 DIIS
   @DF-RKS iter   8: -7990.23366717205408   -3.33071e-06   1.62405e-05 DIIS
   @DF-RKS iter   9: -7990.23366787823852   -7.06184e-07   4.47520e-06 DIIS
   @DF-RKS iter  10: -7990.23366794023423   -6.19957e-08   1.65035e-06 DIIS
   @DF-RKS iter  11: -7990.23366794791582   -7.68159e-09   2.96867e-07 DIIS
   @DF-RKS iter  12: -7990.23366794836511   -4.49290e-10   9.60633e-08 DIIS
   @DF-RKS iter  13: -7990.23366794840513   -4.00178e-11   3.67085e-08 DIIS
   @DF-RKS iter  14: -7990.23366794841058   -5.45697e-12   9.26486e-09 DIIS

  ==> Post-Iterations <==

    Orbital Energies [Eh]
    ---------------------

    Doubly Occupied:                                                      

       1A   -485.397120     2A   -485.392843     3A   -485.389400  
       4A    -63.382594     5A    -63.378278     6A    -63.374806  
       7A    -57.201035     8A    -57.198382     9A    -57.198319  
      10A    -57.196794    11A    -57.194022    12A    -57.193956  
      13A    -57.193354    14A    -57.190534    15A    -57.190496  
      16A    -19.713069    17A    -19.596494    18A    -10.711946  
      19A    -10.689599    20A    -10.626625    21A     -9.047996  
      22A     -9.043712    23A     -9.040229    24A     -6.872408  
      25A     -6.868411    26A     -6.865026    27A     -6.862715  
      28A     -6.862502    29A     -6.858258    30A     -6.858031  
      31A     -6.854697    32A     -6.854559    33A     -2.906232  
      34A     -2.902832    35A     -2.902606    36A     -2.902239  
      37A     -2.898880    38A     -2.898662    39A     -2.898428  
      40A     -2.895177    41A     -2.895038    42A     -2.893578  
      43A     -2.893569    44A     -2.888983    45A     -2.888976  
      46A     -2.885425    47A     -2.885415    48A     -1.255681  
      49A     -1.127433    50A     -0.984389    51A     -0.874593  
      52A     -0.872156    53A     -0.841459    54A     -0.791691  
      55A     -0.673689    56A     -0.653513    57A     -0.601501  
      58A     -0.580110    59A     -0.541113    60A     -0.524451  
      61A     -0.504543    62A     -0.478350    63A     -0.470760  
      64A     -0.461385    65A     -0.387469    66A     -0.385323  
      67A     -0.379733    68A     -0.366235    69A     -0.352543  
      70A     -0.348329    71A     -0.339991    72A     -0.336026  

    Virtual:                                                              

      73A     -0.031739    74A     -0.010094    75A      0.005785  
      76A      0.011429    77A      0.013481    78A      0.029806  
      79A      0.030957    80A      0.047995    81A      0.061593  
      82A      0.072630    83A      0.073827    84A      0.085749  
      85A      0.103530    86A      0.105940    87A      0.116616  
      88A      0.123611    89A      0.125722    90A      0.132541  
      91A      0.139922    92A      0.146935    93A      0.152226  
      94A      0.175691    95A      0.185662    96A      0.200846  
      97A      0.208489    98A      0.223336    99A      0.227338  
     100A      0.242209   101A      0.244781   102A      0.261383  
     103A      0.271459   104A      0.275905   105A      0.279079  
     106A      0.281740   107A      0.302624   108A      0.313483  
     109A      0.318087   110A      0.319118   111A      0.320402  
     112A      0.329781   113A      0.336807   114A      0.350614  
     115A      0.362015   116A      0.369006   117A      0.372328  
     118A      0.388150   119A      0.401274   120A      0.412229  
     121A      0.419592   122A      0.432641   123A      0.442785  
     124A      0.455132   125A      0.461099   126A      0.468594  
     127A      0.480806   128A      0.485604   129A      0.509983  
     130A      0.536499   131A      0.539234   132A      0.554555  
     133A      0.560715   134A      0.574033   135A      0.593500  
     136A      0.607222   137A      0.615658   138A      0.638325  
     139A      0.644851   140A      0.665660   141A      0.688726  
     142A      0.714536   143A      0.743408   144A      0.779544  
     145A      0.805547   146A      0.821334   147A      0.847743  
     148A      0.913315   149A      0.934432   150A      0.959957  
     151A      0.984464   152A      1.021170   153A      1.052284  
     154A      1.081155   155A      1.102572   156A      1.123356  
     157A      1.137671   158A      1.202963   159A      1.214077  
     160A      1.226402   161A      1.251594   162A      1.270913  
     163A      1.302236   164A      1.324180   165A      1.340472  
     166A      1.354522   167A      1.370354   168A      1.376980  
     169A      1.395206   170A      1.395323   171A      1.399758  
     172A      1.408842   173A      1.412125   174A      1.418394  
     175A      1.429159   176A      1.431063   177A      1.448044  
     178A      1.455203   179A      1.459392   180A      1.468376  
     181A      1.491754   182A      1.506673   183A      1.524447  
     184A      1.532346   185A      1.544912   186A      1.553218  
     187A      1.556623   188A      1.564932   189A      1.570989  
     190A      1.575913   191A      1.587742   192A      1.595400  
     193A      1.597011   194A      1.610406   195A      1.627767  
     196A      1.635410   197A      1.653883   198A      1.668834  
     199A      1.689155   200A      1.694454   201A      1.701084  
     202A      1.706338   203A      1.722775   204A      1.732941  
     205A      1.746798   206A      1.748301   207A      1.777678  
     208A      1.785301   209A      1.786298   210A      1.797406  
     211A      1.805582   212A      1.809850   213A      1.850006  
     214A      1.861905   215A      1.864851   216A      1.885999  
     217A      1.917687   218A      1.937501   219A      1.985402  
     220A      1.995686   221A      2.022014   222A      2.056218  
     223A      2.089054   224A      2.128520   225A      2.149856  
     226A      2.154195   227A      2.180517   228A      2.201865  
     229A      2.252222   230A      2.337839   231A      2.361694  
     232A      2.452920   233A      2.497834   234A      2.512716  
     235A      2.525946   236A      2.558692   237A      2.596510  
     238A      2.626880   239A      2.757249   240A      2.813327  
     241A      2.842257   242A      2.914693   243A      2.962850  
     244A      3.011695   245A      3.109608   246A      3.117301  
     247A      3.163486   248A      3.237430   249A      3.308236  
     250A      3.363868   251A      3.411602   252A      3.474879  
     253A      3.549607   254A      3.736731   255A      3.791868  
     256A      3.824837   257A      3.848499   258A      3.976325  
     259A      4.037381   260A      4.074007   261A      4.076538  
     262A      4.093668   263A      4.096438   264A      4.101098  
     265A      4.120253   266A      4.146918   267A      4.174291  
     268A      4.184162   269A      4.194352   270A      4.207788  
     271A      4.228496   272A      4.264673   273A      4.412188  
     274A      4.469482   275A      4.491708   276A      5.233011  
     277A      5.259386   278A      5.303070   279A      5.347772  
     280A      5.635801   281A      5.794093   282A      7.598215  
     283A      7.614917   284A      7.627706   285A     23.569943  
     286A     23.850221   287A     23.965535   288A     49.984191  
     289A     50.139813  

    Final Occupation by Irrep:
              A 
    DOCC [    72 ]

  Energy converged.

  @DF-RKS Final Energy: -7990.23366794841058

   => Energetics <=

    Nuclear Repulsion Energy =           1469.1594678734463741
    One-Electron Energy =              -14043.8454778405193792
    Two-Electron Energy =                4730.4928960815050232
    DFT Exchange-Correlation Energy =    -146.0405540628414371
    Empirical Dispersion Energy =           0.0000000000000000
    VV10 Nonlocal Energy =                  0.0000000000000000
    Total Energy =                      -7990.2336679484105844



Properties will be evaluated at   0.000000,   0.000000,   0.000000 [a0]

Properties computed using the SCF density matrix

  Nuclear Dipole Moment: [e a0]
     X:     6.0145      Y:    16.9316      Z:   -23.3973

  Electronic Dipole Moment: [e a0]
     X:    -4.8246      Y:   -15.8200      Z:    23.0116

  Dipole Moment: [e a0]
     X:     1.1898      Y:     1.1116      Z:    -0.3857     Total:     1.6734

  Dipole Moment: [D]
     X:     3.0243      Y:     2.8255      Z:    -0.9802     Total:     4.2533


*** tstop() called on localhost.localdomain at Mon Jan 21 16:09:22 2019
Module time:
	user time   =     360.64 seconds =       6.01 minutes
	system time =      11.49 seconds =       0.19 minutes
	total time  =         25 seconds =       0.42 minutes
Total time:
	user time   =    1327.31 seconds =      22.12 minutes
	system time =      42.40 seconds =       0.71 minutes
	total time  =         95 seconds =       1.58 minutes

*** tstart() called on localhost.localdomain
*** at Mon Jan 21 16:09:22 2019


         ------------------------------------------------------------
                                   SCF GRAD                          
                          Rob Parrish, Justin Turney,                
                       Andy Simmonett, and Alex Sokolov              
         ------------------------------------------------------------

  ==> Geometry <==

    Molecular point group: c1
    Full point group: C1

    Geometry (in Angstrom), charge = 0, multiplicity = 1:

       Center              X                  Y                   Z               Mass       
    ------------   -----------------  -----------------  -----------------  -----------------
         C            0.115017151605     0.298325198843    -1.564722768619    12.000000000000
         O           -0.933756503351     0.226444526298    -2.322234190643    15.994914619560
         BR           1.580237198644     0.458195307576     0.882847011658    78.918337087000
         BR          -1.600531274749     0.641576996964     0.721379491083    78.918337087000
         H            1.102882193286     3.543531597822    -2.364968391682     1.007825032070
         C            1.328427103756     2.488961175703    -2.221047867948    12.000000000000
         H            1.512501189779     2.004228116927    -3.183100035699     1.007825032070
         H            2.188644102341     2.377888173753    -1.563628408583     1.007825032070
         O            0.196563226481     1.892007160707    -1.574125926716    15.994914619560
         H           -0.682189015919     1.574899898225    -2.216528409729     1.007825032070
         C           -0.017229438833    -0.116679585615    -0.076066617434    12.000000000000
         BR          -0.113750542742    -2.055962767331    -0.083413737241    78.918337087000
         H            1.092701724403    -0.045309394883    -1.939623498237     1.007825032070

  Nuclear repulsion = 1469.159467873446374

  ==> Basis Set <==

  Basis Set: ANONYMOUSFF384441
    Blend: 6-311PPGSS + DEF2-TZVPP
    Number of shells: 123
    Number of basis function: 289
    Number of Cartesian functions: 315
    Spherical Harmonics?: true
    Max angular momentum: 3

  ==> DFJKGrad: Density-Fitted SCF Gradients <==

    Gradient:                    1
    J tasked:                  Yes
    K tasked:                  Yes
    wK tasked:                  No
    OpenMP threads:             16
    Integrals threads:          16
    Memory (MB):               375
    Schwarz Cutoff:          0E+00
    Fitting Condition:       1E-12

   => Auxiliary Basis Set <=

  Basis Set: (ANONYMOUSFF384441 AUX)
    Blend: AUG-CC-PVTZ-JKFIT + DEF2-TZVPP-JKFIT
    Number of shells: 400
    Number of basis function: 1548
    Number of Cartesian functions: 2043
    Spherical Harmonics?: true
    Max angular momentum: 5

  ==> DFT Potential <==

   => Composite Functional: M06-2X <= 

    Hybrid M06-2X Meta-GGA XC Functional

    Y. Zhao and D. G. Truhlar,  Theor. Chem. Acc., 120, 215, 2008


    Deriv               =              1
    GGA                 =           TRUE
    Meta                =           TRUE

    Exchange Hybrid     =           TRUE
    MP2 Hybrid          =          FALSE

   => Exchange Functionals <=

    1.0000   XC_HYB_MGGA_X_M06_2X

   => Exact (HF) Exchange <=

    0.5400               HF 

   => Correlation Functionals <=

    1.0000   XC_MGGA_C_M06_2X

   => Molecular Quadrature <=

    Radial Scheme       =       TREUTLER
    Pruning Scheme      =           FLAT
    Nuclear Scheme      =       TREUTLER

    BS radius alpha     =              1
    Pruning alpha       =              1
    Radial Points       =             75
    Spherical Points    =            302
    Total Points        =         294004
    Total Blocks        =           2272
    Max Points          =            256
    Max Functions       =            250


  -Total Gradient:
     Atom            X                  Y                   Z
    ------   -----------------  -----------------  -----------------
       1        0.001083397263    -0.000057959016    -0.000109856448
       2       -0.000495602437    -0.000003526557    -0.000382757144
       3       -0.000069782591    -0.000037680773    -0.000201650534
       4       -0.000024044043     0.000039339403    -0.000105508224
       5        0.000024751098     0.000052367468    -0.000086081972
       6        0.000020753101     0.000023667366    -0.000135978885
       7        0.000009729755     0.000053877921    -0.000103967023
       8        0.000008430492     0.000026452306    -0.000100837797
       9       -0.000148189801     0.000001472477    -0.000124790568
      10        0.000109508908     0.000191624296    -0.000094257137
      11       -0.000031463760     0.000007490908    -0.000073626025
      12       -0.000004488858     0.000058574339    -0.000209375086
      13       -0.000344402332     0.000141883779    -0.000053118056


*** tstop() called on localhost.localdomain at Mon Jan 21 16:09:30 2019
Module time:
	user time   =     116.04 seconds =       1.93 minutes
	system time =       3.08 seconds =       0.05 minutes
	total time  =          8 seconds =       0.13 minutes
Total time:
	user time   =    1443.38 seconds =      24.06 minutes
	system time =      45.48 seconds =       0.76 minutes
	total time  =        103 seconds =       1.72 minutes

  //>>>>>>>>>>>>>>>>>>>>>>>>>>>>>>>>>>>//
  //    Loading displacement 3 of 67   //
  //<<<<<<<<<<<<<<<<<<<<<<<<<<<<<<<<<<<//
gradient() will perform analytic gradient computation.

*** tstart() called on localhost.localdomain
*** at Mon Jan 21 16:09:30 2019

   => Loading Basis Set <=

    Name: ANONYMOUSFF384441
    Role: ORBITAL
    Keyword: BASIS
    atoms 1, 6, 11       entry C          line   119 file /root/psi4conda/share/psi4/basis/6-311ppgss.gbs 
    atoms 2, 9           entry O          line   161 file /root/psi4conda/share/psi4/basis/6-311ppgss.gbs 
    atoms 3-4, 12        entry BR         line  1545 file /root/psi4conda/share/psi4/basis/def2-tzvpp.gbs 
    atoms 5, 7-8, 10, 13 entry H          line    42 file /root/psi4conda/share/psi4/basis/6-311ppgss.gbs 


         ---------------------------------------------------------
                                   SCF
            by Justin Turney, Rob Parrish, Andy Simmonett
                             and Daniel Smith
                              RKS Reference
                       16 Threads,    500 MiB Core
         ---------------------------------------------------------

  ==> Geometry <==

    Molecular point group: c1
    Full point group: C1

    Geometry (in Angstrom), charge = 0, multiplicity = 1:

       Center              X                  Y                   Z               Mass       
    ------------   -----------------  -----------------  -----------------  -----------------
         C            0.114283081192     0.297587683329    -1.564716009792    12.000000000000
         O           -0.933684317015     0.226512519192    -2.322247231423    15.994914619560
         BR           1.580252435719     0.458211188377     0.882882406898    78.918337087000
         BR          -1.600513062020     0.641597157477     0.721361149241    78.918337087000
         H            1.102956935815     3.543599164215    -2.364892641468     1.007825032070
         C            1.328498712419     2.489026341020    -2.220984799888    12.000000000000
         H            1.512589667508     2.004308415973    -3.183041364913     1.007825032070
         H            2.188703943705     2.377942463306    -1.563551781369     1.007825032070
         O            0.196622992386     1.892062695558    -1.574092466678    15.994914619560
         H           -0.682117981940     1.574966081089    -2.216515618874     1.007825032070
         C           -0.017197436787    -0.116647655745    -0.076068771218    12.000000000000
         BR          -0.113719459774    -2.055930668870    -0.083448317118    78.918337087000
         H            1.092766949660    -0.045248558081    -1.939604756461     1.007825032070

  Running in c1 symmetry.

  Rotational constants: A =      0.02237  B =      0.01873  C =      0.01668 [cm^-1]
  Rotational constants: A =    670.62940  B =    561.44699  C =    500.14658 [MHz]
  Nuclear repulsion = 1469.167676004718487

  Charge       = 0
  Multiplicity = 1
  Electrons    = 144
  Nalpha       = 72
  Nbeta        = 72

  ==> Algorithm <==

  SCF Algorithm Type is DF.
  DIIS enabled.
  MOM disabled.
  Fractional occupation disabled.
  Guess Type is SAD.
  Energy threshold   = 1.00e-08
  Density threshold  = 1.00e-08
  Integral threshold = 0.00e+00

  ==> Primary Basis <==

  Basis Set: ANONYMOUSFF384441
    Blend: 6-311PPGSS + DEF2-TZVPP
    Number of shells: 123
    Number of basis function: 289
    Number of Cartesian functions: 315
    Spherical Harmonics?: true
    Max angular momentum: 3

  ==> DFT Potential <==

   => Composite Functional: M06-2X <= 

    Hybrid M06-2X Meta-GGA XC Functional

    Y. Zhao and D. G. Truhlar,  Theor. Chem. Acc., 120, 215, 2008


    Deriv               =              1
    GGA                 =           TRUE
    Meta                =           TRUE

    Exchange Hybrid     =           TRUE
    MP2 Hybrid          =          FALSE

   => Exchange Functionals <=

    1.0000   XC_HYB_MGGA_X_M06_2X

   => Exact (HF) Exchange <=

    0.5400               HF 

   => Correlation Functionals <=

    1.0000   XC_MGGA_C_M06_2X

   => Molecular Quadrature <=

    Radial Scheme       =       TREUTLER
    Pruning Scheme      =           FLAT
    Nuclear Scheme      =       TREUTLER

    BS radius alpha     =              1
    Pruning alpha       =              1
    Radial Points       =             75
    Spherical Points    =            302
    Total Points        =         294004
    Total Blocks        =           2269
    Max Points          =            256
    Max Functions       =            249

   => Loading Basis Set <=

    Name: (ANONYMOUSFF384441 AUX)
    Role: JKFIT
    Keyword: DF_BASIS_SCF
    atoms 1, 6, 11       entry C          line   162 file /root/psi4conda/share/psi4/basis/aug-cc-pvtz-jkfit.gbs 
    atoms 2, 9           entry O          line   286 file /root/psi4conda/share/psi4/basis/aug-cc-pvtz-jkfit.gbs 
    atoms 3-4, 12        entry BR         line  3129 file /root/psi4conda/share/psi4/basis/def2-tzvpp-jkfit.gbs 
    atoms 5, 7-8, 10, 13 entry H          line    70 file /root/psi4conda/share/psi4/basis/aug-cc-pvtz-jkfit.gbs 

  ==> Pre-Iterations <==

   -------------------------------------------------------
    Irrep   Nso     Nmo     Nalpha   Nbeta   Ndocc  Nsocc
   -------------------------------------------------------
     A        289     289       0       0       0       0
   -------------------------------------------------------
    Total     289     289      72      72      72       0
   -------------------------------------------------------

  ==> Integral Setup <==

  ==> DiskDFJK: Density-Fitted J/K Matrices <==

    J tasked:                  Yes
    K tasked:                  Yes
    wK tasked:                  No
    OpenMP threads:             16
    Integrals threads:          16
    Memory (MB):               375
    Algorithm:                Disk
    Integral Cache:           NONE
    Schwarz Cutoff:          1E-12
    Fitting Condition:       1E-12

   => Auxiliary Basis Set <=

  Basis Set: (ANONYMOUSFF384441 AUX)
    Blend: AUG-CC-PVTZ-JKFIT + DEF2-TZVPP-JKFIT
    Number of shells: 400
    Number of basis function: 1548
    Number of Cartesian functions: 2043
    Spherical Harmonics?: true
    Max angular momentum: 5

  Minimum eigenvalue in the overlap matrix is 5.1424473336E-05.
  Using Symmetric Orthogonalization.

  SCF Guess: Superposition of Atomic Densities via on-the-fly atomic UHF.

  ==> Iterations <==

                           Total Energy        Delta E     RMS |[F,P]|

   @DF-RKS iter   0: -7991.51338132833371   -7.99151e+03   7.33279e-02 
   @DF-RKS iter   1: -7989.67011379864107    1.84327e+00   2.32532e-02 
   @DF-RKS iter   2: -7989.12919108594269    5.40923e-01   2.65656e-02 DIIS
   @DF-RKS iter   3: -7990.11968890061144   -9.90498e-01   7.10568e-03 DIIS
   @DF-RKS iter   4: -7990.23116343756010   -1.11475e-01   9.75174e-04 DIIS
   @DF-RKS iter   5: -7990.23313609602519   -1.97266e-03   4.57375e-04 DIIS
   @DF-RKS iter   6: -7990.23364072360800   -5.04628e-04   9.02048e-05 DIIS
   @DF-RKS iter   7: -7990.23366461596925   -2.38924e-05   3.42615e-05 DIIS
   @DF-RKS iter   8: -7990.23366793337846   -3.31741e-06   1.94862e-05 DIIS
   @DF-RKS iter   9: -7990.23366891840033   -9.85022e-07   4.22481e-06 DIIS
   @DF-RKS iter  10: -7990.23366898245877   -6.40584e-08   1.66415e-06 DIIS
   @DF-RKS iter  11: -7990.23366899165649   -9.19772e-09   3.42516e-07 DIIS
   @DF-RKS iter  12: -7990.23366899238954   -7.33053e-10   1.08887e-07 DIIS
   @DF-RKS iter  13: -7990.23366899245138   -6.18456e-11   4.92952e-08 DIIS
   @DF-RKS iter  14: -7990.23366899245775   -6.36646e-12   1.09561e-08 DIIS
   @DF-RKS iter  15: -7990.23366899245866   -9.09495e-13   3.75208e-09 DIIS

  ==> Post-Iterations <==

    Orbital Energies [Eh]
    ---------------------

    Doubly Occupied:                                                      

       1A   -485.397151     2A   -485.392854     3A   -485.389404  
       4A    -63.382624     5A    -63.378290     6A    -63.374811  
       7A    -57.201065     8A    -57.198411     9A    -57.198348  
      10A    -57.196805    11A    -57.194034    12A    -57.193968  
      13A    -57.193358    14A    -57.190539    15A    -57.190501  
      16A    -19.712857    17A    -19.596611    18A    -10.711949  
      19A    -10.689611    20A    -10.626534    21A     -9.048025  
      22A     -9.043724    23A     -9.040233    24A     -6.872439  
      25A     -6.868423    26A     -6.865031    27A     -6.862743  
      28A     -6.862529    29A     -6.858270    30A     -6.858043  
      31A     -6.854702    32A     -6.854565    33A     -2.906262  
      34A     -2.902862    35A     -2.902636    36A     -2.902250  
      37A     -2.898885    38A     -2.898673    39A     -2.898440  
      40A     -2.895181    41A     -2.895043    42A     -2.893605  
      43A     -2.893596    44A     -2.888996    45A     -2.888988  
      46A     -2.885430    47A     -2.885420    48A     -1.255534  
      49A     -1.127701    50A     -0.984435    51A     -0.874610  
      52A     -0.872169    53A     -0.841341    54A     -0.791674  
      55A     -0.673595    56A     -0.653431    57A     -0.601365  
      58A     -0.580043    59A     -0.541171    60A     -0.524580  
      61A     -0.504540    62A     -0.478387    63A     -0.470751  
      64A     -0.461228    65A     -0.387479    66A     -0.385348  
      67A     -0.379783    68A     -0.366269    69A     -0.352555  
      70A     -0.348356    71A     -0.340034    72A     -0.336075  

    Virtual:                                                              

      73A     -0.031751    74A     -0.010075    75A      0.005727  
      76A      0.011420    77A      0.013496    78A      0.029804  
      79A      0.030967    80A      0.048011    81A      0.061600  
      82A      0.072623    83A      0.073820    84A      0.085731  
      85A      0.103435    86A      0.105941    87A      0.116644  
      88A      0.123613    89A      0.125711    90A      0.132466  
      91A      0.139929    92A      0.146946    93A      0.152267  
      94A      0.175718    95A      0.185682    96A      0.200879  
      97A      0.208474    98A      0.223416    99A      0.227386  
     100A      0.242207   101A      0.244814   102A      0.261396  
     103A      0.271455   104A      0.275914   105A      0.279066  
     106A      0.281766   107A      0.302626   108A      0.313451  
     109A      0.318085   110A      0.319095   111A      0.320403  
     112A      0.329751   113A      0.336838   114A      0.350621  
     115A      0.362024   116A      0.369040   117A      0.372313  
     118A      0.388185   119A      0.401281   120A      0.412272  
     121A      0.419566   122A      0.432644   123A      0.442782  
     124A      0.455183   125A      0.461116   126A      0.468643  
     127A      0.480849   128A      0.485645   129A      0.510049  
     130A      0.536540   131A      0.539237   132A      0.554522  
     133A      0.560719   134A      0.574074   135A      0.593493  
     136A      0.607239   137A      0.615681   138A      0.638333  
     139A      0.644855   140A      0.665732   141A      0.688812  
     142A      0.714604   143A      0.743471   144A      0.779518  
     145A      0.805613   146A      0.821434   147A      0.847806  
     148A      0.913327   149A      0.934477   150A      0.959963  
     151A      0.984430   152A      1.021214   153A      1.052399  
     154A      1.081093   155A      1.102510   156A      1.123350  
     157A      1.137730   158A      1.203045   159A      1.214131  
     160A      1.226313   161A      1.251554   162A      1.270946  
     163A      1.302239   164A      1.324166   165A      1.340513  
     166A      1.354480   167A      1.370396   168A      1.376900  
     169A      1.395191   170A      1.395299   171A      1.399744  
     172A      1.408831   173A      1.412121   174A      1.418387  
     175A      1.429137   176A      1.431047   177A      1.448038  
     178A      1.455258   179A      1.459388   180A      1.468382  
     181A      1.491811   182A      1.506611   183A      1.524253  
     184A      1.532368   185A      1.544931   186A      1.553228  
     187A      1.556592   188A      1.564923   189A      1.570949  
     190A      1.575936   191A      1.587729   192A      1.595363  
[...]

  Vibration                       16                  17                  18          
  Freq [cm^-1]                 255.8338            297.5158            340.4629       
  Irrep                           A                   A                   A           
  Reduced mass [u]              6.3811              5.7772              7.4133        
  Force const [mDyne/A]         0.2461              0.3013              0.5063        
  Turning point v=0 [a0]        0.2716              0.2647              0.2184        
  RMS dev v=0 [a0 u^1/2]        0.4851              0.4498              0.4205        
  Char temp [K]                368.0873            428.0584            489.8495       
  ----------------------------------------------------------------------------------
      1   C               -0.04  0.02 -0.02    0.09 -0.18  0.06    0.10  0.15  0.27   
      2   O                0.01 -0.01 -0.09   -0.02 -0.10  0.20    0.11 -0.12  0.34   
      3   BR              -0.05 -0.02 -0.01   -0.07 -0.02 -0.06   -0.08 -0.02 -0.08   
      4   BR               0.10 -0.05 -0.04    0.00 -0.01  0.00    0.04 -0.02 -0.04   
      5   H                0.02 -0.33 -0.20   -0.43  0.10  0.09    0.45  0.05 -0.04   
      6   C               -0.08 -0.30  0.12   -0.02  0.17 -0.02    0.09 -0.02 -0.03   
      7   H               -0.09 -0.61  0.27    0.01  0.31 -0.08    0.01 -0.08 -0.01   
      8   H               -0.12 -0.20  0.19    0.11  0.44 -0.14    0.02 -0.30  0.02   
      9   O               -0.13 -0.05  0.24    0.24 -0.22  0.08   -0.12  0.28 -0.08   
     10   H               -0.11  0.08  0.20    0.07 -0.13  0.25    0.03 -0.13 -0.15   
     11   C                0.01  0.00 -0.06    0.02 -0.02  0.05    0.04  0.03  0.14   
     12   BR               0.00  0.14  0.01    0.01  0.10 -0.02   -0.00 -0.01  0.00   
     13   H               -0.01  0.10 -0.02    0.01 -0.36  0.02    0.19  0.39  0.28   

  Vibration                       19                  20                  21          
  Freq [cm^-1]                 570.4939            673.3446            738.2078       
  Irrep                           A                   A                   A           
  Reduced mass [u]              5.6976              4.9197              7.4422        
  Force const [mDyne/A]         1.0926              1.3142              2.3895        
  Turning point v=0 [a0]        0.1925              0.1906              0.1480        
  RMS dev v=0 [a0 u^1/2]        0.3248              0.2990              0.2856        
  Char temp [K]                820.8125            968.7916           1062.1150       
  ----------------------------------------------------------------------------------
      1   C                0.24  0.19 -0.27   -0.03  0.38  0.07    0.11 -0.03  0.06   
      2   O               -0.03 -0.09  0.16    0.03  0.00  0.00    0.15  0.34  0.08   
      3   BR              -0.02 -0.00 -0.00   -0.00 -0.01 -0.01   -0.01  0.00 -0.01   
      4   BR              -0.05  0.02  0.04    0.02 -0.01 -0.01   -0.02  0.01  0.00   
      5   H                0.02 -0.06 -0.02   -0.37 -0.09  0.19   -0.19 -0.10  0.20   
      6   C                0.00 -0.05  0.03   -0.03 -0.03 -0.00   -0.18 -0.12  0.05   
      7   H                0.02 -0.12  0.06    0.02  0.10 -0.05    0.04  0.04  0.01   
      8   H               -0.05 -0.07  0.09   -0.06  0.06  0.05   -0.32 -0.17  0.22   
      9   O               -0.01 -0.04  0.03    0.04 -0.27 -0.06   -0.09 -0.16 -0.25   
     10   H               -0.17  0.20  0.26    0.07  0.57  0.06    0.16  0.43 -0.12   
     11   C                0.29  0.03 -0.29   -0.12  0.25  0.08    0.20 -0.35  0.13   
     12   BR              -0.01 -0.02  0.01   -0.00 -0.03  0.00   -0.00  0.03 -0.00   
     13   H                0.22  0.36 -0.51    0.01  0.21  0.32    0.12 -0.05  0.05   

  Vibration                       22                  23                  24          
  Freq [cm^-1]                 742.9659            808.8385           1004.1203       
  Irrep                           A                   A                   A           
  Reduced mass [u]              9.0663              8.4899              2.8901        
  Force const [mDyne/A]         2.9486              3.2725              1.7169        
  Turning point v=0 [a0]        0.1337              0.1324              0.2037        
  RMS dev v=0 [a0 u^1/2]        0.2847              0.2728              0.2449        
  Char temp [K]               1068.9609           1163.7367           1444.7033       
  ----------------------------------------------------------------------------------
      1   C               -0.00 -0.25 -0.04   -0.24  0.24  0.10    0.13  0.02 -0.21   
      2   O                0.02  0.12 -0.07   -0.12 -0.17 -0.22   -0.02 -0.01 -0.01   
      3   BR              -0.03 -0.02 -0.02   -0.02 -0.00 -0.01   -0.00 -0.00 -0.00   
      4   BR              -0.01 -0.01 -0.00   -0.02  0.01 -0.00    0.01 -0.00 -0.00   
      5   H                0.06 -0.02  0.01   -0.08  0.04 -0.02    0.29  0.10 -0.07   
      6   C               -0.10 -0.05  0.06    0.16  0.09 -0.07    0.06  0.06 -0.06   
      7   H               -0.04 -0.06  0.06    0.04  0.10 -0.09    0.19 -0.03  0.01   
      8   H               -0.10 -0.09  0.06    0.24  0.19 -0.16   -0.14 -0.15  0.17   
      9   O               -0.02  0.03 -0.03    0.03 -0.03  0.09   -0.06 -0.02  0.02   
     10   H                0.01 -0.13 -0.01    0.02  0.07 -0.08   -0.52  0.10  0.54   
     11   C                0.44  0.58  0.27    0.47 -0.28  0.27   -0.11 -0.04  0.28   
     12   BR              -0.01 -0.04 -0.01   -0.00  0.01 -0.00    0.00  0.00 -0.00   
     13   H               -0.12 -0.46 -0.13   -0.24  0.38 -0.02    0.09 -0.09 -0.19   

  Vibration                       25                  26                  27          
  Freq [cm^-1]                1077.2329           1137.5669           1186.8657       
  Irrep                           A                   A                   A           
  Reduced mass [u]              2.8468              1.9831              1.3069        
  Force const [mDyne/A]         1.9464              1.5120              1.0847        
  Turning point v=0 [a0]        0.1981              0.2310              0.2786        
  RMS dev v=0 [a0 u^1/2]        0.2364              0.2300              0.2252        
  Char temp [K]               1549.8959           1636.7030           1707.6329       
  ----------------------------------------------------------------------------------
      1   C                0.05  0.05 -0.14   -0.05  0.04  0.05    0.01 -0.06 -0.02   
      2   O               -0.06 -0.05 -0.00    0.00 -0.05 -0.03   -0.01  0.02  0.00   
      3   BR              -0.00 -0.00 -0.00    0.00  0.00  0.00    0.00 -0.00 -0.00   
      4   BR               0.00 -0.00 -0.00   -0.00  0.00 -0.00    0.00 -0.00  0.00   
      5   H               -0.27 -0.14  0.01    0.10  0.02  0.21   -0.41 -0.14  0.37   
      6   C               -0.14 -0.10  0.14   -0.15 -0.06 -0.01    0.05 -0.10 -0.07   
      7   H               -0.34 -0.06  0.07    0.34  0.10 -0.01    0.39  0.39 -0.25   
      8   H                0.16  0.12 -0.20   -0.43 -0.15  0.35   -0.05  0.25  0.12   
      9   O                0.16  0.10 -0.05    0.16  0.09 -0.04   -0.04  0.03  0.04   
     10   H                0.39 -0.12 -0.43   -0.36 -0.01  0.49    0.02 -0.06 -0.01   
     11   C               -0.06 -0.03  0.16    0.02 -0.02 -0.04   -0.01  0.02  0.02   
     12   BR               0.00  0.00 -0.00   -0.00 -0.00  0.00    0.00  0.00 -0.00   
     13   H                0.10  0.33 -0.28   -0.11 -0.12  0.09    0.17  0.42 -0.01   

  Vibration                       28                  29                  30          
  Freq [cm^-1]                1235.1968           1268.6792           1342.3102       
  Irrep                           A                   A                   A           
  Reduced mass [u]              1.2799              1.2481              1.3190        
  Force const [mDyne/A]         1.1505              1.1836              1.4003        
  Turning point v=0 [a0]        0.2760              0.2758              0.2608        
  RMS dev v=0 [a0 u^1/2]        0.2208              0.2178              0.2118        
  Char temp [K]               1777.1705           1825.3441           1931.2826       
  ----------------------------------------------------------------------------------
      1   C                0.01 -0.06  0.02   -0.02 -0.05  0.01    0.09  0.02 -0.04   
      2   O               -0.06  0.02 -0.02   -0.01  0.01 -0.01   -0.10 -0.01 -0.03   
      3   BR               0.00 -0.00  0.00    0.00 -0.00  0.00   -0.00 -0.00 -0.00   
      4   BR              -0.00 -0.00  0.00   -0.00  0.00 -0.00   -0.00  0.00 -0.00   
      5   H                0.38  0.14 -0.13   -0.15 -0.08 -0.11   -0.08 -0.02  0.09   
      6   C               -0.05  0.06 -0.03    0.04 -0.02  0.09    0.00 -0.01 -0.01   
      7   H                0.09 -0.13  0.09   -0.30 -0.01  0.02   -0.02 -0.01 -0.01   
      8   H               -0.18 -0.22  0.09    0.31  0.17 -0.23   -0.06  0.01  0.07   
      9   O                0.04 -0.06  0.02    0.00  0.01 -0.08   -0.01  0.04  0.02   
     10   H                0.14 -0.09 -0.08   -0.46  0.07  0.48    0.15  0.07 -0.13   
     11   C                0.00  0.02 -0.00    0.01  0.00 -0.02    0.03 -0.02 -0.01   
     12   BR              -0.00  0.00 -0.00   -0.00  0.00 -0.00   -0.00  0.00  0.00   
     13   H                0.35  0.69  0.21    0.22  0.29  0.32    0.28 -0.43  0.80   

  Vibration                       31                  32                  33          
  Freq [cm^-1]                1453.5439           1485.0639           1501.5038       
  Irrep                           A                   A                   A           
  Reduced mass [u]              1.8812              1.5560              1.0596        
  Force const [mDyne/A]         2.3418              2.0219              1.4074        
  Turning point v=0 [a0]        0.2098              0.2283              0.2751        
  RMS dev v=0 [a0 u^1/2]        0.2035              0.2013              0.2002        
  Char temp [K]               2091.3229           2136.6730           2160.3263       
  ----------------------------------------------------------------------------------
      1   C                0.16 -0.03  0.16    0.13  0.01  0.11    0.03 -0.01  0.02   
      2   O               -0.09 -0.01 -0.08   -0.07 -0.01 -0.06   -0.01 -0.00 -0.01   
      3   BR              -0.00 -0.00 -0.00   -0.00 -0.00 -0.00    0.00 -0.00 -0.00   
      4   BR              -0.00 -0.00  0.00   -0.00 -0.00  0.00    0.00 -0.00  0.00   
      5   H               -0.46 -0.08  0.06    0.57  0.06 -0.15    0.02  0.11  0.62   
      6   C                0.08  0.03 -0.02   -0.06 -0.07  0.03   -0.03  0.02 -0.04   
      7   H               -0.44 -0.20  0.01    0.15  0.36 -0.14    0.23 -0.54  0.31   
      8   H               -0.26 -0.26  0.35    0.18  0.50 -0.17    0.20  0.16 -0.29   
      9   O                0.00  0.02 -0.03   -0.03 -0.01 -0.00   -0.01  0.01 -0.01   
     10   H                0.05  0.14  0.14    0.04  0.22  0.06   -0.03  0.05  0.04   
     11   C               -0.02  0.01 -0.01   -0.01  0.00 -0.01   -0.00  0.00 -0.00   
     12   BR               0.00 -0.00 -0.00    0.00 -0.00  0.00    0.00  0.00 -0.00   
     13   H               -0.05  0.04 -0.41   -0.04 -0.08 -0.22   -0.00  0.00 -0.07   

  Vibration                       34                  35                  36          
  Freq [cm^-1]                1510.7186           2195.9542           3007.4131       
  Irrep                           A                   A                   A           
  Reduced mass [u]              1.0872              1.0596              1.0866        
  Force const [mDyne/A]         1.4619              3.0104              5.7903        
  Turning point v=0 [a0]        0.2708              0.2275              0.1919        
  RMS dev v=0 [a0 u^1/2]        0.1996              0.1656              0.1415        
  Char temp [K]               2173.5844           3159.4844           4326.9913       
  ----------------------------------------------------------------------------------
      1   C                0.04  0.00  0.03   -0.00  0.04 -0.01   -0.07  0.03  0.03   
      2   O               -0.02 -0.00 -0.02   -0.01  0.01 -0.01   -0.00 -0.00 -0.00   
      3   BR              -0.00  0.00 -0.00   -0.00 -0.00 -0.00    0.00  0.00  0.00   
      4   BR              -0.00 -0.00  0.00    0.00  0.00 -0.00    0.00 -0.00 -0.00   
      5   H               -0.31 -0.09 -0.27    0.01 -0.01  0.00    0.00 -0.00 -0.00   
      6   C               -0.03  0.03  0.04    0.00 -0.00  0.01    0.00 -0.00 -0.00   
      7   H                0.55  0.13  0.08    0.00  0.01  0.01   -0.00  0.02  0.03   
      8   H                0.22 -0.53 -0.38    0.03  0.02 -0.03   -0.01  0.00 -0.01   
      9   O               -0.01  0.01  0.00   -0.03 -0.01 -0.03    0.00  0.00  0.00   
     10   H                0.01  0.07  0.04    0.62 -0.49  0.61   -0.01 -0.02  0.01   
     11   C               -0.00  0.00 -0.00   -0.00 -0.00 -0.00   -0.00  0.00  0.00   
     12   BR               0.00 -0.00  0.00   -0.00 -0.00  0.00    0.00 -0.00 -0.00   
     13   H               -0.00 -0.04 -0.04   -0.03 -0.02  0.01    0.88 -0.31 -0.36   

  Vibration                       37                  38                  39          
  Freq [cm^-1]                3074.6050           3166.2096           3193.9109       
  Irrep                           A                   A                   A           
  Reduced mass [u]              1.0344              1.1015              1.1083        
  Force const [mDyne/A]         5.7612              6.5062              6.6612        
  Turning point v=0 [a0]        0.1946              0.1858              0.1844        
  RMS dev v=0 [a0 u^1/2]        0.1399              0.1379              0.1373        
  Char temp [K]               4423.6653           4555.4637           4595.3196       
  ----------------------------------------------------------------------------------
      1   C                0.00 -0.00 -0.00    0.00  0.00 -0.00    0.00 -0.00 -0.00   
      2   O                0.00  0.00  0.00    0.00  0.00  0.00   -0.00 -0.00  0.00   
      3   BR              -0.00 -0.00 -0.00    0.00  0.00 -0.00   -0.00 -0.00  0.00   
      4   BR              -0.00  0.00  0.00   -0.00  0.00  0.00   -0.00  0.00  0.00   
      5   H                0.09 -0.42  0.05   -0.12  0.52 -0.08   -0.16  0.71 -0.09   
      6   C                0.03  0.00 -0.04   -0.02 -0.06 -0.07    0.06 -0.06  0.04   
      7   H               -0.13  0.35  0.69   -0.10  0.27  0.53    0.01 -0.01  0.02   
      8   H               -0.35  0.04 -0.27    0.46 -0.08  0.35   -0.53  0.06 -0.42   
      9   O                0.00  0.00 -0.00   -0.00 -0.00  0.00   -0.00  0.00 -0.00   
     10   H               -0.01 -0.00 -0.01    0.00  0.00 -0.00   -0.00 -0.00  0.00   
     11   C               -0.00  0.00  0.00   -0.00 -0.00  0.00   -0.00  0.00 -0.00   
     12   BR              -0.00  0.00 -0.00   -0.00  0.00  0.00    0.00  0.00  0.00   
     13   H               -0.03  0.01  0.01   -0.01  0.00  0.00   -0.01  0.00  0.00   

  ==> Thermochemistry Components <==

  Entropy, S
    Electronic S            0.000 [cal/(mol K)]        0.000 [J/(mol K)]       0.00000000 [mEh/K] (multiplicity = 1)
    Translational S        43.088 [cal/(mol K)]      180.282 [J/(mol K)]       0.06866584 [mEh/K] (mol. weight = 309.7840 [u], P = 101325.00 [Pa])
    Rotational S           31.812 [cal/(mol K)]      133.103 [J/(mol K)]       0.05069643 [mEh/K] (symmetry no. = 1)
    Vibrational S          29.033 [cal/(mol K)]      121.475 [J/(mol K)]       0.04626722 [mEh/K]
  Total S                 103.934 [cal/(mol K)]      434.860 [J/(mol K)]       0.16562949 [mEh/K]
  Correction S              0.000 [cal/(mol K)]        0.000 [J/(mol K)]       0.00000000 [mEh/K]

  Constant volume heat capacity, Cv
    Electronic Cv           0.000 [cal/(mol K)]        0.000 [J/(mol K)]       0.00000000 [mEh/K]
    Translational Cv        2.981 [cal/(mol K)]       12.472 [J/(mol K)]       0.00475022 [mEh/K]
    Rotational Cv           2.981 [cal/(mol K)]       12.472 [J/(mol K)]       0.00475022 [mEh/K]
    Vibrational Cv         26.266 [cal/(mol K)]      109.895 [J/(mol K)]       0.04185697 [mEh/K]
  Total Cv                 32.227 [cal/(mol K)]      134.839 [J/(mol K)]       0.05135741 [mEh/K]
  Correction Cv             0.000 [cal/(mol K)]        0.000 [J/(mol K)]       0.00000000 [mEh/K]

  Constant pressure heat capacity, Cp
    Electronic Cp           0.000 [cal/(mol K)]        0.000 [J/(mol K)]       0.00000000 [mEh/K]
    Translational Cp        4.968 [cal/(mol K)]       20.786 [J/(mol K)]       0.00791704 [mEh/K]
    Rotational Cp           2.981 [cal/(mol K)]       12.472 [J/(mol K)]       0.00475022 [mEh/K]
    Vibrational Cp         26.266 [cal/(mol K)]      109.895 [J/(mol K)]       0.04185697 [mEh/K]
  Total Cp                 34.214 [cal/(mol K)]      143.153 [J/(mol K)]       0.05452422 [mEh/K]
  Correction Cp             0.000 [cal/(mol K)]        0.000 [J/(mol K)]       0.00000000 [mEh/K]

  ==> Thermochemistry Energy Analysis <==

  Raw electronic energy, E0
  Total E0, Electronic energy at well bottom at 0 [K]                -7990.23366874 [Eh]

  Zero-point energy, ZPE_vib = Sum_i nu_i / 2
    Electronic ZPE          0.000 [kcal/mol]        0.000 [kJ/mol]       0.00000000 [Eh]
    Translational ZPE       0.000 [kcal/mol]        0.000 [kJ/mol]       0.00000000 [Eh]
    Rotational ZPE          0.000 [kcal/mol]        0.000 [kJ/mol]       0.00000000 [Eh]
    Vibrational ZPE        49.240 [kcal/mol]      206.018 [kJ/mol]       0.07846828 [Eh]       17221.794 [cm^-1]
  Correction ZPE           49.240 [kcal/mol]      206.018 [kJ/mol]       0.07846828 [Eh]       17221.794 [cm^-1]
  Total ZPE, Electronic energy at 0 [K]                              -7990.15520046 [Eh]

  Thermal Energy, E (includes ZPE)
    Electronic E            0.000 [kcal/mol]        0.000 [kJ/mol]       0.00000000 [Eh]
    Translational E         0.889 [kcal/mol]        3.718 [kJ/mol]       0.00141628 [Eh]
    Rotational E            0.889 [kcal/mol]        3.718 [kJ/mol]       0.00141628 [Eh]
    Vibrational E          53.774 [kcal/mol]      224.992 [kJ/mol]       0.08569505 [Eh]
  Correction E             55.552 [kcal/mol]      232.429 [kJ/mol]       0.08852761 [Eh]
  Total E, Electronic energy at  298.15 [K]                          -7990.14514113 [Eh]

  Enthalpy, H_trans = E_trans + k_B * T
    Electronic H            0.000 [kcal/mol]        0.000 [kJ/mol]       0.00000000 [Eh]
    Translational H         1.481 [kcal/mol]        6.197 [kJ/mol]       0.00236046 [Eh]
    Rotational H            0.889 [kcal/mol]        3.718 [kJ/mol]       0.00141628 [Eh]
    Vibrational H          53.774 [kcal/mol]      224.992 [kJ/mol]       0.08569505 [Eh]
  Correction H             56.144 [kcal/mol]      234.908 [kJ/mol]       0.08947179 [Eh]
  Total H, Enthalpy at  298.15 [K]                                   -7990.14419694 [Eh]

  Gibbs free energy, G = H - T * S
    Electronic G            0.000 [kcal/mol]        0.000 [kJ/mol]       0.00000000 [Eh]
    Translational G       -11.366 [kcal/mol]      -47.554 [kJ/mol]      -0.01811226 [Eh]
    Rotational G           -8.596 [kcal/mol]      -35.966 [kJ/mol]      -0.01369886 [Eh]
    Vibrational G          45.118 [kcal/mol]      188.775 [kJ/mol]       0.07190048 [Eh]
  Correction G             25.156 [kcal/mol]      105.255 [kJ/mol]       0.04008936 [Eh]
  Total G, Free enthalpy at  298.15 [K]                              -7990.19357938 [Eh]

    Psi4 stopped on: Monday, 21 January 2019 04:52PM
    Psi4 wall time for execution: 0:45:00.12

*** Psi4 exiting successfully. Buy a developer a beer!
