
    -----------------------------------------------------------------------
          Psi4: An Open-Source Ab Initio Electronic Structure Package
                               Psi4 1.2.1 release

                         Git: Rev {HEAD} 406f4de 


    R. M. Parrish, L. A. Burns, D. G. A. Smith, A. C. Simmonett,
    A. E. DePrince III, E. G. Hohenstein, U. Bozkaya, A. Yu. Sokolov,
    R. Di Remigio, R. M. Richard, J. F. Gonthier, A. M. James,
    H. R. McAlexander, A. Kumar, M. Saitow, X. Wang, B. P. Pritchard,
    P. Verma, H. F. Schaefer III, K. Patkowski, R. A. King, E. F. Valeev,
    F. A. Evangelista, J. M. Turney, T. D. Crawford, and C. D. Sherrill,
    J. Chem. Theory Comput. 13(7) pp 3185--3197 (2017).
    (doi: 10.1021/acs.jctc.7b00174)


                         Additional Contributions by
    P. Kraus, H. Kruse, M. H. Lechner, M. C. Schieber, and R. A. Shaw

    -----------------------------------------------------------------------


    Psi4 started on: Thursday, 21 March 2019 02:42PM

    Process ID: 763
    Host:       DESKTOP-QL22TIG
    PSIDATADIR: /home/wderricotte/src/psi4conda/share/psi4
    Memory:     500.0 MiB
    Threads:    1
    
  ==> Input File <==

--------------------------------------------------------------------------
molecule{
0 2
    C            0.356299825253     1.013243057490    -0.166403618312
    H           -0.086635603400     0.686580639148    -1.101413887066
    H           -0.002613359048     1.950166909144     0.240199946630
    C            1.545351482127     0.508939188583     0.266605917293
    H            2.044663795160     0.942899322873     1.127490601300
    C           -1.428026199267    -0.274656937984     0.650421646081
    H           -0.857947879160    -1.179509965545     0.819655070490
    H           -1.787676463914     0.254633334095     1.534516198356
    N            2.154609092859    -0.641092588855    -0.221587032878
    H            1.792210520259    -1.086660484431    -1.055913933760
    H            3.095480323942    -0.879398998425     0.059977252876
    O           -2.327625728243    -0.443483300014    -0.436180972570
    H           -2.832638360371     0.403185904264    -0.560745555406 
}

set{
   basis 3-21G
   freeze_core True
   reference uhf
   full_hess_every 0
   normal_modes_write True
}


set_num_threads(1)
frequencies('b3lyp')
--------------------------------------------------------------------------
  Threads set to 1 by Python driver.
gradient() will perform analytic gradient computation.

*** tstart() called on DESKTOP-QL22TIG
*** at Thu Mar 21 14:42:11 2019

   => Loading Basis Set <=

    Name: 3-21G
    Role: ORBITAL
    Keyword: BASIS
    atoms 1, 4, 6                entry C          line    68 file /home/wderricotte/src/psi4conda/share/psi4/basis/3-21g.gbs 
    atoms 2-3, 5, 7-8, 10-11, 13 entry H          line    21 file /home/wderricotte/src/psi4conda/share/psi4/basis/3-21g.gbs 
    atoms 9                      entry N          line    79 file /home/wderricotte/src/psi4conda/share/psi4/basis/3-21g.gbs 
    atoms 12                     entry O          line    90 file /home/wderricotte/src/psi4conda/share/psi4/basis/3-21g.gbs 


         ---------------------------------------------------------
                                   SCF
            by Justin Turney, Rob Parrish, Andy Simmonett
                             and Daniel Smith
                              UKS Reference
                        1 Threads,    500 MiB Core
         ---------------------------------------------------------

  ==> Geometry <==

    Molecular point group: c1
    Full point group: C1

    Geometry (in Angstrom), charge = 0, multiplicity = 2:

       Center              X                  Y                   Z               Mass       
    ------------   -----------------  -----------------  -----------------  -----------------
         C            0.356299825253     1.013243057490    -0.166403618312    12.000000000000
         H           -0.086635603400     0.686580639148    -1.101413887066     1.007825032070
         H           -0.002613359048     1.950166909144     0.240199946630     1.007825032070
         C            1.545351482127     0.508939188583     0.266605917293    12.000000000000
         H            2.044663795160     0.942899322873     1.127490601300     1.007825032070
         C           -1.428026199267    -0.274656937984     0.650421646081    12.000000000000
         H           -0.857947879160    -1.179509965545     0.819655070490     1.007825032070
         H           -1.787676463914     0.254633334095     1.534516198356     1.007825032070
         N            2.154609092859    -0.641092588855    -0.221587032878    14.003074004780
         H            1.792210520259    -1.086660484431    -1.055913933760     1.007825032070
         H            3.095480323942    -0.879398998425     0.059977252876     1.007825032070
         O           -2.327625728243    -0.443483300014    -0.436180972570    15.994914619560
         H           -2.832638360371     0.403185904264    -0.560745555406     1.007825032070

  Running in c1 symmetry.

  Rotational constants: A =      0.33490  B =      0.06675  C =      0.06237 [cm^-1]
  Rotational constants: A =  10040.15153  B =   2001.19942  C =   1869.94129 [MHz]
  Nuclear repulsion =  167.952259611629188

  Charge       = 0
  Multiplicity = 2
  Electrons    = 41
  Nalpha       = 21
  Nbeta        = 20

  ==> Algorithm <==

  SCF Algorithm Type is DF.
  DIIS enabled.
  MOM disabled.
  Fractional occupation disabled.
  Guess Type is GWH.
  Energy threshold   = 1.00e-08
  Density threshold  = 1.00e-08
  Integral threshold = 0.00e+00

  ==> Primary Basis <==

  Basis Set: 3-21G
    Blend: 3-21G
    Number of shells: 41
    Number of basis function: 61
    Number of Cartesian functions: 61
    Spherical Harmonics?: false
    Max angular momentum: 1

  ==> DFT Potential <==

   => Composite Functional: B3LYP <= 

    B3LYP Hyb-GGA Exchange-Correlation Functional

    P. J. Stephens, F. J. Devlin, C. F. Chabalowski, and M. J. Frisch, J. Phys. Chem. 98, 11623 (1994)

    Deriv               =              1
    GGA                 =           TRUE
    Meta                =          FALSE

    Exchange Hybrid     =           TRUE
    MP2 Hybrid          =          FALSE

   => Exchange Functionals <=

    0.0800   Slater exchange
    0.7200         Becke 88

   => Exact (HF) Exchange <=

    0.2000               HF 

   => Correlation Functionals <=

    0.1900   Vosko, Wilk & Nusair (VWN5_RPA)
    0.8100   Lee, Yang & Parr

   => Molecular Quadrature <=

    Radial Scheme       =       TREUTLER
    Pruning Scheme      =           FLAT
    Nuclear Scheme      =       TREUTLER

    BS radius alpha     =              1
    Pruning alpha       =              1
    Radial Points       =             75
    Spherical Points    =            302
    Total Points        =         285419
    Total Blocks        =           2196
    Max Points          =            256
    Max Functions       =             57

   => Loading Basis Set <=

    Name: (3-21G AUX)
    Role: JKFIT
    Keyword: DF_BASIS_SCF
    atoms 1, 4, 6                entry C          line   203 file /home/wderricotte/src/psi4conda/share/psi4/basis/def2-svp-jkfit.gbs 
    atoms 2-3, 5, 7-8, 10-11, 13 entry H          line    23 file /home/wderricotte/src/psi4conda/share/psi4/basis/def2-svp-jkfit.gbs 
    atoms 9                      entry N          line   263 file /home/wderricotte/src/psi4conda/share/psi4/basis/def2-svp-jkfit.gbs 
    atoms 12                     entry O          line   323 file /home/wderricotte/src/psi4conda/share/psi4/basis/def2-svp-jkfit.gbs 

  ==> Pre-Iterations <==

   -------------------------------------------------------
    Irrep   Nso     Nmo     Nalpha   Nbeta   Ndocc  Nsocc
   -------------------------------------------------------
     A         61      61       0       0       0       0
   -------------------------------------------------------
    Total      61      61      21      20      20       1
   -------------------------------------------------------

  ==> Integral Setup <==

  ==> DiskDFJK: Density-Fitted J/K Matrices <==

    J tasked:                  Yes
    K tasked:                  Yes
    wK tasked:                  No
    OpenMP threads:              1
    Integrals threads:           1
    Memory (MB):               375
    Algorithm:                Core
    Integral Cache:           NONE
    Schwarz Cutoff:          1E-12
    Fitting Condition:       1E-12

   => Auxiliary Basis Set <=

  Basis Set: (3-21G AUX)
    Blend: DEF2-SVP-JKFIT
    Number of shells: 173
    Number of basis function: 613
    Number of Cartesian functions: 613
    Spherical Harmonics?: false
    Max angular momentum: 4

  Minimum eigenvalue in the overlap matrix is 1.1918081178E-02.
  Using Symmetric Orthogonalization.

  SCF Guess: Generalized Wolfsberg-Helmholtz.

  ==> Iterations <==

                           Total Energy        Delta E     RMS |[F,P]|

   @DF-UKS iter   1:  -245.21268412044668   -2.45213e+02   4.83364e-02 
   @DF-UKS iter   2:  -243.09997341036853    2.11271e+00   4.45121e-02 DIIS
   @DF-UKS iter   3:  -245.17592297168011   -2.07595e+00   3.08974e-02 DIIS
   @DF-UKS iter   4:  -247.41800800583297   -2.24209e+00   1.02687e-02 DIIS
   @DF-UKS iter   5:  -247.52553934106737   -1.07531e-01   6.48060e-03 DIIS
   @DF-UKS iter   6:  -247.60762215464968   -8.20828e-02   2.20314e-03 DIIS
   @DF-UKS iter   7:  -247.61700092866965   -9.37877e-03   6.33101e-04 DIIS
   @DF-UKS iter   8:  -247.61782001621538   -8.19088e-04   2.87650e-04 DIIS
   @DF-UKS iter   9:  -247.61802771101230   -2.07695e-04   6.95299e-05 DIIS
   @DF-UKS iter  10:  -247.61805471637098   -2.70054e-05   2.65458e-05 DIIS
   @DF-UKS iter  11:  -247.61805927840317   -4.56203e-06   2.20093e-05 DIIS
   @DF-UKS iter  12:  -247.61806077321131   -1.49481e-06   4.45026e-06 DIIS
   @DF-UKS iter  13:  -247.61806094355552   -1.70344e-07   1.66855e-06 DIIS
   @DF-UKS iter  14:  -247.61806098346034   -3.99048e-08   5.56890e-07 DIIS
   @DF-UKS iter  15:  -247.61806098572350   -2.26316e-09   1.33391e-07 DIIS
   @DF-UKS iter  16:  -247.61806098585595   -1.32445e-10   1.10104e-07 DIIS
   @DF-UKS iter  17:  -247.61806098588266   -2.67164e-11   2.83288e-08 DIIS
   @DF-UKS iter  18:  -247.61806098588534   -2.67164e-12   8.62568e-09 DIIS

  ==> Post-Iterations <==

   @Spin Contamination Metric:   2.187035491E-02
   @S^2 Expected:                7.500000000E-01
   @S^2 Observed:                7.718703549E-01
   @S   Expected:                5.000000000E-01
   @S   Observed:                5.000000000E-01

    Orbital Energies [Eh]
    ---------------------

    Alpha Occupied:                                                       

       1A    -19.034133     2A    -14.244249     3A    -10.139800  
       4A    -10.136411     5A    -10.085713     6A     -1.009081  
       7A     -0.891784     8A     -0.717505     9A     -0.639600  
      10A     -0.574519    11A     -0.518715    12A     -0.484376  
      13A     -0.459808    14A     -0.411378    15A     -0.396267  
      16A     -0.365943    17A     -0.346792    18A     -0.322861  
      19A     -0.300215    20A     -0.203179    21A     -0.111471  

    Alpha Virtual:                                                        

      22A      0.083153    23A      0.102017    24A      0.108292  
      25A      0.145286    26A      0.167262    27A      0.194101  
      28A      0.212939    29A      0.215092    30A      0.231827  
      31A      0.261195    32A      0.373436    33A      0.404133  
      34A      0.666491    35A      0.695836    36A      0.739906  
      37A      0.763754    38A      0.794363    39A      0.817771  
      40A      0.846586    41A      0.887466    42A      0.916661  
      43A      0.943584    44A      0.979991    45A      1.024620  
      46A      1.066925    47A      1.075886    48A      1.105657  
      49A      1.125072    50A      1.139361    51A      1.280230  
      52A      1.374979    53A      1.381473    54A      1.510809  
      55A      1.558951    56A      1.654871    57A      1.715465  
      58A      1.777652    59A      2.045877    60A      2.469603  
      61A      2.954873  

    Beta Occupied:                                                        

       1A    -19.030651     2A    -14.242080     3A    -10.132004  
       4A    -10.128212     5A    -10.087763     6A     -0.999903  
       7A     -0.885452     8A     -0.713621     9A     -0.618237  
      10A     -0.571387    11A     -0.517085    12A     -0.476396  
      13A     -0.456875    14A     -0.404790    15A     -0.393288  
      16A     -0.357742    17A     -0.327647    18A     -0.306535  
      19A     -0.285342    20A     -0.185020  

    Beta Virtual:                                                         

      21A      0.001507    22A      0.099847    23A      0.106837  
      24A      0.116212    25A      0.146727    26A      0.173989  
      27A      0.197287    28A      0.214332    29A      0.224401  
      30A      0.235294    31A      0.274883    32A      0.379198  
      33A      0.405553    34A      0.670835    35A      0.702468  
      36A      0.749330    37A      0.783517    38A      0.812073  
      39A      0.821093    40A      0.855042    41A      0.891811  
      42A      0.927110    43A      0.945052    44A      0.983146  
      45A      1.026147    46A      1.071442    47A      1.077533  
      48A      1.112243    49A      1.126545    50A      1.146458  
      51A      1.282907    52A      1.376591    53A      1.391117  
      54A      1.524475    55A      1.572033    56A      1.659993  
      57A      1.721462    58A      1.781005    59A      2.050783  
      60A      2.475083    61A      2.962827  

    Final Occupation by Irrep:
              A 
    DOCC [    20 ]
    SOCC [     1 ]

  Energy converged.

  @DF-UKS Final Energy:  -247.61806098588534

   => Energetics <=

    Nuclear Repulsion Energy =            167.9522596116291879
    One-Electron Energy =                -668.5019761905346058
    Two-Electron Energy =                 280.9361942126830627
    DFT Exchange-Correlation Energy =     -28.0045386196629877
    Empirical Dispersion Energy =           0.0000000000000000
    VV10 Nonlocal Energy =                  0.0000000000000000
    Total Energy =                       -247.6180609858853359


  UHF NO Occupations:
  HONO-2 :   19  A 1.9996736
  HONO-1 :   20  A 1.9899952
  HONO-0 :   21  A 1.0000000
  LUNO+0 :   22  A 0.0100048
  LUNO+1 :   23  A 0.0003264
  LUNO+2 :   24  A 0.0001796
  LUNO+3 :   25  A 0.0001576



Properties will be evaluated at   0.000000,   0.000000,   0.000000 [a0]

Properties computed using the SCF density matrix

  Nuclear Dipole Moment: [e a0]
     X:     1.2621      Y:     1.0234      Z:     0.9958

  Electronic Dipole Moment: [e a0]
     X:    -0.7607      Y:    -0.8047      Z:    -0.9387

  Dipole Moment: [e a0]
     X:     0.5013      Y:     0.2186      Z:     0.0571     Total:     0.5499

  Dipole Moment: [D]
     X:     1.2743      Y:     0.5556      Z:     0.1452     Total:     1.3977


*** tstop() called on DESKTOP-QL22TIG at Thu Mar 21 14:42:32 2019
Module time:
	user time   =      19.78 seconds =       0.33 minutes
	system time =       0.67 seconds =       0.01 minutes
	total time  =         21 seconds =       0.35 minutes
Total time:
	user time   =      19.78 seconds =       0.33 minutes
	system time =       0.67 seconds =       0.01 minutes
	total time  =         21 seconds =       0.35 minutes

*** tstart() called on DESKTOP-QL22TIG
*** at Thu Mar 21 14:42:32 2019


         ------------------------------------------------------------
                                   SCF GRAD                          
                          Rob Parrish, Justin Turney,                
                       Andy Simmonett, and Alex Sokolov              
         ------------------------------------------------------------

  ==> Geometry <==

    Molecular point group: c1
    Full point group: C1

    Geometry (in Angstrom), charge = 0, multiplicity = 2:

       Center              X                  Y                   Z               Mass       
    ------------   -----------------  -----------------  -----------------  -----------------
         C            0.356299825253     1.013243057490    -0.166403618312    12.000000000000
         H           -0.086635603400     0.686580639148    -1.101413887066     1.007825032070
         H           -0.002613359048     1.950166909144     0.240199946630     1.007825032070
         C            1.545351482127     0.508939188583     0.266605917293    12.000000000000
         H            2.044663795160     0.942899322873     1.127490601300     1.007825032070
         C           -1.428026199267    -0.274656937984     0.650421646081    12.000000000000
         H           -0.857947879160    -1.179509965545     0.819655070490     1.007825032070
         H           -1.787676463914     0.254633334095     1.534516198356     1.007825032070
         N            2.154609092859    -0.641092588855    -0.221587032878    14.003074004780
         H            1.792210520259    -1.086660484431    -1.055913933760     1.007825032070
         H            3.095480323942    -0.879398998425     0.059977252876     1.007825032070
         O           -2.327625728243    -0.443483300014    -0.436180972570    15.994914619560
         H           -2.832638360371     0.403185904264    -0.560745555406     1.007825032070

  Nuclear repulsion =  167.952259611629188

  ==> Basis Set <==

  Basis Set: 3-21G
    Blend: 3-21G
    Number of shells: 41
    Number of basis function: 61
    Number of Cartesian functions: 61
    Spherical Harmonics?: false
    Max angular momentum: 1

  ==> DFJKGrad: Density-Fitted SCF Gradients <==

    Gradient:                    1
    J tasked:                  Yes
    K tasked:                  Yes
    wK tasked:                  No
    OpenMP threads:              1
    Integrals threads:           1
    Memory (MB):               375
    Schwarz Cutoff:          0E+00
    Fitting Condition:       1E-12

   => Auxiliary Basis Set <=

  Basis Set: (3-21G AUX)
    Blend: DEF2-SVP-JKFIT
    Number of shells: 173
    Number of basis function: 613
    Number of Cartesian functions: 613
    Spherical Harmonics?: false
    Max angular momentum: 4

  ==> DFT Potential <==

   => Composite Functional: B3LYP <= 

    B3LYP Hyb-GGA Exchange-Correlation Functional

    P. J. Stephens, F. J. Devlin, C. F. Chabalowski, and M. J. Frisch, J. Phys. Chem. 98, 11623 (1994)

    Deriv               =              1
    GGA                 =           TRUE
    Meta                =          FALSE

    Exchange Hybrid     =           TRUE
    MP2 Hybrid          =          FALSE

   => Exchange Functionals <=

    0.0800   Slater exchange
    0.7200         Becke 88

   => Exact (HF) Exchange <=

    0.2000               HF 

   => Correlation Functionals <=

    0.1900   Vosko, Wilk & Nusair (VWN5_RPA)
    0.8100   Lee, Yang & Parr

   => Molecular Quadrature <=

    Radial Scheme       =       TREUTLER
    Pruning Scheme      =           FLAT
    Nuclear Scheme      =       TREUTLER

    BS radius alpha     =              1
    Pruning alpha       =              1
    Radial Points       =             75
    Spherical Points    =            302
    Total Points        =         285419
    Total Blocks        =           2196
    Max Points          =            256
    Max Functions       =             57


  -Total Gradient:
     Atom            X                  Y                   Z
    ------   -----------------  -----------------  -----------------
       1       -0.000064753073    -0.000010712777     0.000024253654
       2       -0.000004128540     0.000036574383    -0.000010396905
       3        0.000033188454     0.000002410929     0.000019351853
       4        0.000044187831    -0.000062929087    -0.000012706458
       5        0.000005670474     0.000009544932    -0.000008120729
       6        0.000007731388    -0.000027580372    -0.000073193824
       7        0.000023864533     0.000024978298     0.000029106733
       8       -0.000013209998     0.000022409563    -0.000023691136
       9       -0.000028959830    -0.000018734499     0.000039312743
      10        0.000027717917     0.000023952492    -0.000012758763
      11       -0.000025766852     0.000004573432    -0.000003698376
      12        0.000011854546    -0.000003395774     0.000056784955
      13       -0.000006146989    -0.000014365307    -0.000001054090


*** tstop() called on DESKTOP-QL22TIG at Thu Mar 21 14:42:35 2019
Module time:
	user time   =       2.47 seconds =       0.04 minutes
	system time =       0.20 seconds =       0.00 minutes
	total time  =          3 seconds =       0.05 minutes
Total time:
	user time   =      22.25 seconds =       0.37 minutes
	system time =       0.87 seconds =       0.01 minutes
	total time  =         24 seconds =       0.40 minutes

  Based on options and gradient (rms=2.87E-05), recommend projecting translations and projecting rotations.
hessian() will perform frequency computation by finite difference of analytic gradients.

-------------------------------------------------------------

  Using finite-differences of gradients to determine vibrational frequencies and 
  normal modes.  Resulting frequencies are only valid at stationary points.
	Generating geometries for use with 3-point formula.
	Displacement size will be 5.00e-03.
	Number of atoms is 13.
	Number of irreps is 1.
	Number of SALCS is 33.
	Translations projected? 1. Rotations projected? 1.
	Index of salcs per irrep:
	 1 :  0  1  2  3  4  5  6  7  8  9  10  11  12  13  14  15  16  17  18  19  20  21  22  23  24  25  26  27  28  29  30  31  32 
	Number of SALC's per irrep:
		 Irrep 1: 33
	Number of geometries (including reference) is 67.
	Number of displacements per irrep:
	  Irrep 1: 66

  //>>>>>>>>>>>>>>>>>>>>>>>>>>>>>>>>>>>//
  //    Loading displacement 1 of 67   //
  //<<<<<<<<<<<<<<<<<<<<<<<<<<<<<<<<<<<//
gradient() will perform analytic gradient computation.

*** tstart() called on DESKTOP-QL22TIG
*** at Thu Mar 21 14:42:35 2019

   => Loading Basis Set <=

    Name: 3-21G
    Role: ORBITAL
    Keyword: BASIS
    atoms 1, 4, 6                entry C          line    68 file /home/wderricotte/src/psi4conda/share/psi4/basis/3-21g.gbs 
    atoms 2-3, 5, 7-8, 10-11, 13 entry H          line    21 file /home/wderricotte/src/psi4conda/share/psi4/basis/3-21g.gbs 
    atoms 9                      entry N          line    79 file /home/wderricotte/src/psi4conda/share/psi4/basis/3-21g.gbs 
    atoms 12                     entry O          line    90 file /home/wderricotte/src/psi4conda/share/psi4/basis/3-21g.gbs 


         ---------------------------------------------------------
                                   SCF
            by Justin Turney, Rob Parrish, Andy Simmonett
                             and Daniel Smith
                              UKS Reference
                        1 Threads,    500 MiB Core
         ---------------------------------------------------------

  ==> Geometry <==

    Molecular point group: c1
    Full point group: C1

    Geometry (in Angstrom), charge = 0, multiplicity = 2:

       Center              X                  Y                   Z               Mass       
    ------------   -----------------  -----------------  -----------------  -----------------
         C            0.355620655161     1.013228724976    -0.166403896364    12.000000000000
         H           -0.086461487707     0.686580803183    -1.101416532810     1.007825032070
         H           -0.002400179812     1.950167709304     0.240194255296     1.007825032070
         C            1.545508446365     0.508879899705     0.266616012337    12.000000000000
         H            2.044831178108     0.942823130623     1.127503174260     1.007825032070
         C           -1.427902566521    -0.274599542237     0.650411748470    12.000000000000
         H           -0.857860683588    -1.179474235243     0.819652074587     1.007825032070
         H           -1.787538881045     0.254707279873     1.534502067481     1.007825032070
         N            2.154725014739    -0.641176978009    -0.221569029594    14.003074004780
         H            1.792315373335    -1.086733214497    -1.055897349101     1.007825032070
         H            3.095584874386    -0.879519138195     0.060002996687     1.007825032070
         O           -2.327500518362    -0.443394099117    -0.436197117487    15.994914619560
         H           -2.832479309372     0.403294371564    -0.560767945448     1.007825032070

  Running in c1 symmetry.

  Rotational constants: A =      0.33490  B =      0.06676  C =      0.06238 [cm^-1]
  Rotational constants: A =  10039.91088  B =   2001.26684  C =   1869.99232 [MHz]
  Nuclear repulsion =  167.948017199741429

  Charge       = 0
  Multiplicity = 2
  Electrons    = 41
  Nalpha       = 21
  Nbeta        = 20

  ==> Algorithm <==

  SCF Algorithm Type is DF.
  DIIS enabled.
  MOM disabled.
  Fractional occupation disabled.
  Guess Type is GWH.
  Energy threshold   = 1.00e-08
  Density threshold  = 1.00e-08
  Integral threshold = 0.00e+00

  ==> Primary Basis <==

  Basis Set: 3-21G
    Blend: 3-21G
    Number of shells: 41
    Number of basis function: 61
    Number of Cartesian functions: 61
    Spherical Harmonics?: false
    Max angular momentum: 1

  ==> DFT Potential <==

   => Composite Functional: B3LYP <= 

    B3LYP Hyb-GGA Exchange-Correlation Functional

    P. J. Stephens, F. J. Devlin, C. F. Chabalowski, and M. J. Frisch, J. Phys. Chem. 98, 11623 (1994)

    Deriv               =              1
    GGA                 =           TRUE
    Meta                =          FALSE

    Exchange Hybrid     =           TRUE
    MP2 Hybrid          =          FALSE

   => Exchange Functionals <=

    0.0800   Slater exchange
    0.7200         Becke 88

   => Exact (HF) Exchange <=

    0.2000               HF 

   => Correlation Functionals <=

    0.1900   Vosko, Wilk & Nusair (VWN5_RPA)
    0.8100   Lee, Yang & Parr

   => Molecular Quadrature <=

    Radial Scheme       =       TREUTLER
    Pruning Scheme      =           FLAT
    Nuclear Scheme      =       TREUTLER

    BS radius alpha     =              1
    Pruning alpha       =              1
    Radial Points       =             75
    Spherical Points    =            302
    Total Points        =         285419
    Total Blocks        =           2198
    Max Points          =            256
    Max Functions       =             57

   => Loading Basis Set <=

    Name: (3-21G AUX)
    Role: JKFIT
    Keyword: DF_BASIS_SCF
    atoms 1, 4, 6                entry C          line   203 file /home/wderricotte/src/psi4conda/share/psi4/basis/def2-svp-jkfit.gbs 
    atoms 2-3, 5, 7-8, 10-11, 13 entry H          line    23 file /home/wderricotte/src/psi4conda/share/psi4/basis/def2-svp-jkfit.gbs 
    atoms 9                      entry N          line   263 file /home/wderricotte/src/psi4conda/share/psi4/basis/def2-svp-jkfit.gbs 
    atoms 12                     entry O          line   323 file /home/wderricotte/src/psi4conda/share/psi4/basis/def2-svp-jkfit.gbs 

  ==> Pre-Iterations <==

   -------------------------------------------------------
    Irrep   Nso     Nmo     Nalpha   Nbeta   Ndocc  Nsocc
   -------------------------------------------------------
     A         61      61       0       0       0       0
   -------------------------------------------------------
    Total      61      61      21      20      20       1
   -------------------------------------------------------

  ==> Integral Setup <==

  ==> DiskDFJK: Density-Fitted J/K Matrices <==

    J tasked:                  Yes
    K tasked:                  Yes
    wK tasked:                  No
    OpenMP threads:              1
    Integrals threads:           1
    Memory (MB):               375
    Algorithm:                Core
    Integral Cache:           NONE
    Schwarz Cutoff:          1E-12
    Fitting Condition:       1E-12

   => Auxiliary Basis Set <=

  Basis Set: (3-21G AUX)
    Blend: DEF2-SVP-JKFIT
    Number of shells: 173
    Number of basis function: 613
    Number of Cartesian functions: 613
    Spherical Harmonics?: false
    Max angular momentum: 4

  Minimum eigenvalue in the overlap matrix is 1.1942052131E-02.
  Using Symmetric Orthogonalization.

  SCF Guess: Generalized Wolfsberg-Helmholtz.

  ==> Iterations <==

                           Total Energy        Delta E     RMS |[F,P]|

   @DF-UKS iter   1:  -245.21313326806774   -2.45213e+02   4.83337e-02 
   @DF-UKS iter   2:  -243.09630481942031    2.11683e+00   4.45209e-02 DIIS
   @DF-UKS iter   3:  -245.16565724005511   -2.06935e+00   3.09116e-02 DIIS
   @DF-UKS iter   4:  -247.41743882617936   -2.25178e+00   1.02817e-02 DIIS
   @DF-UKS iter   5:  -247.52530869171107   -1.07870e-01   6.48993e-03 DIIS
   @DF-UKS iter   6:  -247.60757549405957   -8.22668e-02   2.20739e-03 DIIS
   @DF-UKS iter   7:  -247.61700030717770   -9.42481e-03   6.32992e-04 DIIS
   @DF-UKS iter   8:  -247.61781961370241   -8.19307e-04   2.86888e-04 DIIS
   @DF-UKS iter   9:  -247.61802677980586   -2.07166e-04   6.95215e-05 DIIS
   @DF-UKS iter  10:  -247.61805398541946   -2.72056e-05   2.66389e-05 DIIS
   @DF-UKS iter  11:  -247.61805858701450   -4.60160e-06   2.21040e-05 DIIS
   @DF-UKS iter  12:  -247.61806009768384   -1.51067e-06   4.45525e-06 DIIS
   @DF-UKS iter  13:  -247.61806026880515   -1.71121e-07   1.66976e-06 DIIS
   @DF-UKS iter  14:  -247.61806030872810   -3.99230e-08   5.56109e-07 DIIS
   @DF-UKS iter  15:  -247.61806031098024   -2.25214e-09   1.33968e-07 DIIS
   @DF-UKS iter  16:  -247.61806031111166   -1.31422e-10   1.10794e-07 DIIS
   @DF-UKS iter  17:  -247.61806031113917   -2.75122e-11   2.80396e-08 DIIS
   @DF-UKS iter  18:  -247.61806031114145   -2.27374e-12   8.57476e-09 DIIS

  ==> Post-Iterations <==

   @Spin Contamination Metric:   2.200366037E-02
   @S^2 Expected:                7.500000000E-01
   @S^2 Observed:                7.720036604E-01
   @S   Expected:                5.000000000E-01
   @S   Observed:                5.000000000E-01

    Orbital Energies [Eh]
    ---------------------

    Alpha Occupied:                                                       

       1A    -19.034099     2A    -14.244294     3A    -10.139818  
       4A    -10.136443     5A    -10.085756     6A     -1.009054  
       7A     -0.891795     8A     -0.717396     9A     -0.639579  
      10A     -0.574573    11A     -0.518730    12A     -0.484360  
      13A     -0.459787    14A     -0.411367    15A     -0.396170  
      16A     -0.366005    17A     -0.346830    18A     -0.322859  
      19A     -0.300194    20A     -0.203177    21A     -0.111393  

    Alpha Virtual:                                                        

      22A      0.083060    23A      0.102033    24A      0.108289  
      25A      0.145303    26A      0.167267    27A      0.194115  
      28A      0.212987    29A      0.215103    30A      0.231860  
      31A      0.261210    32A      0.373266    33A      0.403827  
      34A      0.666693    35A      0.695802    36A      0.739965  
      37A      0.763669    38A      0.794372    39A      0.817617  
      40A      0.846530    41A      0.887392    42A      0.916720  
      43A      0.943533    44A      0.980019    45A      1.024642  
      46A      1.066903    47A      1.075989    48A      1.105684  
      49A      1.125057    50A      1.139383    51A      1.280217  
      52A      1.374828    53A      1.381725    54A      1.510695  
      55A      1.558938    56A      1.654927    57A      1.715383  
      58A      1.777716    59A      2.046033    60A      2.469452  
      61A      2.954962  

    Beta Occupied:                                                        

       1A    -19.030622     2A    -14.242117     3A    -10.132021  
       4A    -10.128242     5A    -10.087814     6A     -0.999888  
       7A     -0.885440     8A     -0.713506     9A     -0.618240  
      10A     -0.571430    11A     -0.517094    12A     -0.476389  
      13A     -0.456848    14A     -0.404778    15A     -0.393202  
      16A     -0.357858    17A     -0.327636    18A     -0.306485  
      19A     -0.285335    20A     -0.185017  

    Beta Virtual:                                                         

      21A      0.001508    22A      0.099835    23A      0.106836  
      24A      0.116194    25A      0.146749    26A      0.173990  
      27A      0.197302    28A      0.214383    29A      0.224403  
      30A      0.235328    31A      0.274884    32A      0.379049  
      33A      0.405254    34A      0.671044    35A      0.702425  
      36A      0.749415    37A      0.783387    38A      0.812070  
      39A      0.820938    40A      0.855018    41A      0.891723  
      42A      0.927164    43A      0.945006    44A      0.983172  
      45A      1.026177    46A      1.071419    47A      1.077622  
      48A      1.112293    49A      1.126535    50A      1.146484  
      51A      1.282901    52A      1.376458    53A      1.391359  
      54A      1.524361    55A      1.572008    56A      1.660041  
      57A      1.721391    58A      1.781065    59A      2.050924  
      60A      2.474953    61A      2.962906  

    Final Occupation by Irrep:
              A 
    DOCC [    20 ]
    SOCC [     1 ]

  Energy converged.

  @DF-UKS Final Energy:  -247.61806031114145

   => Energetics <=

    Nuclear Repulsion Energy =            167.9480171997414288
    One-Electron Energy =                -668.4937853480179228
    Two-Electron Energy =                 280.9320914722828775
    DFT Exchange-Correlation Energy =     -28.0043836351478959
    Empirical Dispersion Energy =           0.0000000000000000
    VV10 Nonlocal Energy =                  0.0000000000000000
    Total Energy =                       -247.6180603111414769


  UHF NO Occupations:
  HONO-2 :   19  A 1.9996743
  HONO-1 :   20  A 1.9899281
  HONO-0 :   21  A 1.0000000
  LUNO+0 :   22  A 0.0100719
  LUNO+1 :   23  A 0.0003257
  LUNO+2 :   24  A 0.0001792
  LUNO+3 :   25  A 0.0001573



Properties will be evaluated at   0.000000,   0.000000,   0.000000 [a0]

Properties computed using the SCF density matrix

  Nuclear Dipole Moment: [e a0]
     X:     1.2631      Y:     1.0233      Z:     0.9958

  Electronic Dipole Moment: [e a0]
     X:    -0.7613      Y:    -0.8049      Z:    -0.9388

  Dipole Moment: [e a0]
     X:     0.5018      Y:     0.2184      Z:     0.0570     Total:     0.5503

  Dipole Moment: [D]
     X:     1.2756      Y:     0.5552      Z:     0.1448     Total:     1.3987


*** tstop() called on DESKTOP-QL22TIG at Thu Mar 21 14:42:55 2019
Module time:
	user time   =      18.89 seconds =       0.31 minutes
	system time =       0.71 seconds =       0.01 minutes
	total time  =         20 seconds =       0.33 minutes
Total time:
	user time   =      41.15 seconds =       0.69 minutes
	system time =       1.58 seconds =       0.03 minutes
	total time  =         44 seconds =       0.73 minutes

*** tstart() called on DESKTOP-QL22TIG
*** at Thu Mar 21 14:42:55 2019


         ------------------------------------------------------------
                                   SCF GRAD                          
                          Rob Parrish, Justin Turney,                
                       Andy Simmonett, and Alex Sokolov              
         ------------------------------------------------------------

  ==> Geometry <==

    Molecular point group: c1
    Full point group: C1

    Geometry (in Angstrom), charge = 0, multiplicity = 2:

       Center              X                  Y                   Z               Mass       
    ------------   -----------------  -----------------  -----------------  -----------------
         C            0.355620655161     1.013228724976    -0.166403896364    12.000000000000
         H           -0.086461487707     0.686580803183    -1.101416532810     1.007825032070
         H           -0.002400179812     1.950167709304     0.240194255296     1.007825032070
         C            1.545508446365     0.508879899705     0.266616012337    12.000000000000
         H            2.044831178108     0.942823130623     1.127503174260     1.007825032070
         C           -1.427902566521    -0.274599542237     0.650411748470    12.000000000000
         H           -0.857860683588    -1.179474235243     0.819652074587     1.007825032070
         H           -1.787538881045     0.254707279873     1.534502067481     1.007825032070
         N            2.154725014739    -0.641176978009    -0.221569029594    14.003074004780
         H            1.792315373335    -1.086733214497    -1.055897349101     1.007825032070
         H            3.095584874386    -0.879519138195     0.060002996687     1.007825032070
         O           -2.327500518362    -0.443394099117    -0.436197117487    15.994914619560
         H           -2.832479309372     0.403294371564    -0.560767945448     1.007825032070

  Nuclear repulsion =  167.948017199741429

  ==> Basis Set <==

  Basis Set: 3-21G
    Blend: 3-21G
    Number of shells: 41
    Number of basis function: 61
    Number of Cartesian functions: 61
    Spherical Harmonics?: false
    Max angular momentum: 1

  ==> DFJKGrad: Density-Fitted SCF Gradients <==

    Gradient:                    1
    J tasked:                  Yes
    K tasked:                  Yes
    wK tasked:                  No
    OpenMP threads:              1
    Integrals threads:           1
    Memory (MB):               375
    Schwarz Cutoff:          0E+00
    Fitting Condition:       1E-12

   => Auxiliary Basis Set <=

  Basis Set: (3-21G AUX)
    Blend: DEF2-SVP-JKFIT
    Number of shells: 173
    Number of basis function: 613
    Number of Cartesian functions: 613
    Spherical Harmonics?: false
    Max angular momentum: 4

  ==> DFT Potential <==

   => Composite Functional: B3LYP <= 

    B3LYP Hyb-GGA Exchange-Correlation Functional

    P. J. Stephens, F. J. Devlin, C. F. Chabalowski, and M. J. Frisch, J. Phys. Chem. 98, 11623 (1994)

    Deriv               =              1
    GGA                 =           TRUE
    Meta                =          FALSE

    Exchange Hybrid     =           TRUE
    MP2 Hybrid          =          FALSE

   => Exchange Functionals <=

    0.0800   Slater exchange
    0.7200         Becke 88

   => Exact (HF) Exchange <=

    0.2000               HF 

   => Correlation Functionals <=

    0.1900   Vosko, Wilk & Nusair (VWN5_RPA)
    0.8100   Lee, Yang & Parr

   => Molecular Quadrature <=

    Radial Scheme       =       TREUTLER
    Pruning Scheme      =           FLAT
    Nuclear Scheme      =       TREUTLER

    BS radius alpha     =              1
    Pruning alpha       =              1
    Radial Points       =             75
    Spherical Points    =            302
    Total Points        =         285419
    Total Blocks        =           2198
    Max Points          =            256
    Max Functions       =             57


  -Total Gradient:
     Atom            X                  Y                   Z
    ------   -----------------  -----------------  -----------------
       1       -0.000760623676     0.000417797062    -0.000361593395
       2        0.000132548046     0.000057585723     0.000189333917
       3        0.000144271858    -0.000165824016    -0.000010528092
       4        0.000511247806    -0.000263547171     0.000147951456
       5        0.000023012407    -0.000000446733    -0.000001570144
       6       -0.000085783238    -0.000105520199    -0.000027430896
       7        0.000032028481     0.000028781670     0.000024330433
       8       -0.000010405356     0.000030973141    -0.000026194547
       9        0.000006458808    -0.000040337071     0.000050466602
      10        0.000025984176     0.000027977749    -0.000012060258
      11       -0.000028206070     0.000005231071    -0.000004770249
      12        0.000030016109     0.000008308764     0.000056418214
      13       -0.000009397292    -0.000014193033    -0.000001225543


*** tstop() called on DESKTOP-QL22TIG at Thu Mar 21 14:42:58 2019
Module time:
	user time   =       2.63 seconds =       0.04 minutes
	system time =       0.13 seconds =       0.00 minutes
	total time  =          3 seconds =       0.05 minutes
Total time:
	user time   =      43.78 seconds =       0.73 minutes
	system time =       1.72 seconds =       0.03 minutes
	total time  =         47 seconds =       0.78 minutes

  //>>>>>>>>>>>>>>>>>>>>>>>>>>>>>>>>>>>//
  //    Loading displacement 2 of 67   //
  //<<<<<<<<<<<<<<<<<<<<<<<<<<<<<<<<<<<//
gradient() will perform analytic gradient computation.

*** tstart() called on DESKTOP-QL22TIG
*** at Thu Mar 21 14:42:58 2019

   => Loading Basis Set <=

    Name: 3-21G
    Role: ORBITAL
    Keyword: BASIS
    atoms 1, 4, 6                entry C          line    68 file /home/wderricotte/src/psi4conda/share/psi4/basis/3-21g.gbs 
    atoms 2-3, 5, 7-8, 10-11, 13 entry H          line    21 file /home/wderricotte/src/psi4conda/share/psi4/basis/3-21g.gbs 
    atoms 9                      entry N          line    79 file /home/wderricotte/src/psi4conda/share/psi4/basis/3-21g.gbs 
    atoms 12                     entry O          line    90 file /home/wderricotte/src/psi4conda/share/psi4/basis/3-21g.gbs 


         ---------------------------------------------------------
                                   SCF
            by Justin Turney, Rob Parrish, Andy Simmonett
                             and Daniel Smith
                              UKS Reference
                        1 Threads,    500 MiB Core
         ---------------------------------------------------------

  ==> Geometry <==

    Molecular point group: c1
    Full point group: C1

    Geometry (in Angstrom), charge = 0, multiplicity = 2:

       Center              X                  Y                   Z               Mass       
    ------------   -----------------  -----------------  -----------------  -----------------
         C            0.356978995345     1.013257390004    -0.166403340260    12.000000000000
         H           -0.086809719093     0.686580475113    -1.101411241322     1.007825032070
         H           -0.002826538284     1.950166108984     0.240205637964     1.007825032070
         C            1.545194517889     0.508998477461     0.266595822248    12.000000000000
         H            2.044496412212     0.942975515122     1.127478028340     1.007825032070
         C           -1.428149832013    -0.274714333731     0.650431543692    12.000000000000
         H           -0.858035074732    -1.179545695847     0.819658066393     1.007825032070
         H           -1.787814046783     0.254559388317     1.534530329231     1.007825032070
         N            2.154493170979    -0.641008199701    -0.221605036162    14.003074004780
         H            1.792105667183    -1.086587754365    -1.055930518419     1.007825032070
         H            3.095375773498    -0.879278858655     0.059951509065     1.007825032070
         O           -2.327750938124    -0.443572500911    -0.436164827653    15.994914619560
         H           -2.832797411370     0.403077436964    -0.560723165364     1.007825032070

  Running in c1 symmetry.

  Rotational constants: A =      0.33491  B =      0.06675  C =      0.06237 [cm^-1]
  Rotational constants: A =  10040.39268  B =   2001.13186  C =   1869.89017 [MHz]
  Nuclear repulsion =  167.956510217689527

  Charge       = 0
  Multiplicity = 2
  Electrons    = 41
  Nalpha       = 21
  Nbeta        = 20

  ==> Algorithm <==

  SCF Algorithm Type is DF.
  DIIS enabled.
  MOM disabled.
  Fractional occupation disabled.
  Guess Type is GWH.
  Energy threshold   = 1.00e-08
  Density threshold  = 1.00e-08
  Integral threshold = 0.00e+00

  ==> Primary Basis <==

  Basis Set: 3-21G
    Blend: 3-21G
    Number of shells: 41
    Number of basis function: 61
    Number of Cartesian functions: 61
    Spherical Harmonics?: false
    Max angular momentum: 1

  ==> DFT Potential <==

   => Composite Functional: B3LYP <= 

    B3LYP Hyb-GGA Exchange-Correlation Functional

    P. J. Stephens, F. J. Devlin, C. F. Chabalowski, and M. J. Frisch, J. Phys. Chem. 98, 11623 (1994)

    Deriv               =              1
    GGA                 =           TRUE
    Meta                =          FALSE

    Exchange Hybrid     =           TRUE
    MP2 Hybrid          =          FALSE

   => Exchange Functionals <=

    0.0800   Slater exchange
    0.7200         Becke 88

   => Exact (HF) Exchange <=

    0.2000               HF 

   => Correlation Functionals <=

    0.1900   Vosko, Wilk & Nusair (VWN5_RPA)
    0.8100   Lee, Yang & Parr

   => Molecular Quadrature <=

    Radial Scheme       =       TREUTLER
    Pruning Scheme      =           FLAT
    Nuclear Scheme      =       TREUTLER

    BS radius alpha     =              1
    Pruning alpha       =              1
    Radial Points       =             75
    Spherical Points    =            302
    Total Points        =         285419
    Total Blocks        =           2197
    Max Points          =            256
    Max Functions       =             57

   => Loading Basis Set <=

    Name: (3-21G AUX)
    Role: JKFIT
    Keyword: DF_BASIS_SCF
    atoms 1, 4, 6                entry C          line   203 file /home/wderricotte/src/psi4conda/share/psi4/basis/def2-svp-jkfit.gbs 
    atoms 2-3, 5, 7-8, 10-11, 13 entry H          line    23 file /home/wderricotte/src/psi4conda/share/psi4/basis/def2-svp-jkfit.gbs 
    atoms 9                      entry N          line   263 file /home/wderricotte/src/psi4conda/share/psi4/basis/def2-svp-jkfit.gbs 
    atoms 12                     entry O          line   323 file /home/wderricotte/src/psi4conda/share/psi4/basis/def2-svp-jkfit.gbs 

  ==> Pre-Iterations <==

   -------------------------------------------------------
    Irrep   Nso     Nmo     Nalpha   Nbeta   Ndocc  Nsocc
   -------------------------------------------------------
     A         61      61       0       0       0       0
   -------------------------------------------------------
    Total      61      61      21      20      20       1
   -------------------------------------------------------

  ==> Integral Setup <==

  ==> DiskDFJK: Density-Fitted J/K Matrices <==

    J tasked:                  Yes
    K tasked:                  Yes
    wK tasked:                  No
    OpenMP threads:              1
    Integrals threads:           1
    Memory (MB):               375
    Algorithm:                Core
    Integral Cache:           NONE
    Schwarz Cutoff:          1E-12
    Fitting Condition:       1E-12

   => Auxiliary Basis Set <=

  Basis Set: (3-21G AUX)
    Blend: DEF2-SVP-JKFIT
    Number of shells: 173
    Number of basis function: 613
    Number of Cartesian functions: 613
    Spherical Harmonics?: false
    Max angular momentum: 4

  Minimum eigenvalue in the overlap matrix is 1.1894095813E-02.
  Using Symmetric Orthogonalization.

  SCF Guess: Generalized Wolfsberg-Helmholtz.

  ==> Iterations <==

                           Total Energy        Delta E     RMS |[F,P]|

   @DF-UKS iter   1:  -245.21223197246957   -2.45212e+02   4.83391e-02 
   @DF-UKS iter   2:  -243.10353397367521    2.10870e+00   4.45036e-02 DIIS
   @DF-UKS iter   3:  -245.18660973949142   -2.08308e+00   3.08832e-02 DIIS
   @DF-UKS iter   4:  -247.41858358952396   -2.23197e+00   1.02557e-02 DIIS
   @DF-UKS iter   5:  -247.52573186373297   -1.07148e-01   6.47243e-03 DIIS
   @DF-UKS iter   6:  -247.60766988745814   -8.19380e-02   2.19864e-03 DIIS
   @DF-UKS iter   7:  -247.61700040421528   -9.33052e-03   6.33199e-04 DIIS
   @DF-UKS iter   8:  -247.61781920851115   -8.18804e-04   2.88486e-04 DIIS
   @DF-UKS iter   9:  -247.61802750382702   -2.08295e-04   6.95475e-05 DIIS
   @DF-UKS iter  10:  -247.61805431335694   -2.68095e-05   2.64530e-05 DIIS
   @DF-UKS iter  11:  -247.61805883672599   -4.52337e-06   2.19141e-05 DIIS
   @DF-UKS iter  12:  -247.61806031519222   -1.47847e-06   4.44566e-06 DIIS
   @DF-UKS iter  13:  -247.61806048471482   -1.69523e-07   1.66746e-06 DIIS
   @DF-UKS iter  14:  -247.61806052460310   -3.98883e-08   5.57694e-07 DIIS
   @DF-UKS iter  15:  -247.61806052687820   -2.27510e-09   1.32870e-07 DIIS
   @DF-UKS iter  16:  -247.61806052701104   -1.32843e-10   1.09380e-07 DIIS
   @DF-UKS iter  17:  -247.61806052703741   -2.63753e-11   2.86160e-08 DIIS
   @DF-UKS iter  18:  -247.61806052703969   -2.27374e-12   8.68660e-09 DIIS

  ==> Post-Iterations <==

   @Spin Contamination Metric:   2.173733830E-02
   @S^2 Expected:                7.500000000E-01
   @S^2 Observed:                7.717373383E-01
   @S   Expected:                5.000000000E-01
   @S   Observed:                5.000000000E-01

    Orbital Energies [Eh]
    ---------------------

    Alpha Occupied:                                                       

       1A    -19.034167     2A    -14.244203     3A    -10.139782  
       4A    -10.136377     5A    -10.085671     6A     -1.009108  
       7A     -0.891773     8A     -0.717613     9A     -0.639620  
      10A     -0.574464    11A     -0.518700    12A     -0.484392  
      13A     -0.459828    14A     -0.411389    15A     -0.396365  
      16A     -0.365881    17A     -0.346754    18A     -0.322864  
      19A     -0.300237    20A     -0.203182    21A     -0.111548  

    Alpha Virtual:                                                        

      22A      0.083245    23A      0.102002    24A      0.108295  
      25A      0.145269    26A      0.167256    27A      0.194085  
      28A      0.212892    29A      0.215081    30A      0.231795  
      31A      0.261179    32A      0.373606    33A      0.404439  
      34A      0.666288    35A      0.695870    36A      0.739848  
      37A      0.763838    38A      0.794353    39A      0.817922  
      40A      0.846644    41A      0.887540    42A      0.916604  
      43A      0.943636    44A      0.979962    45A      1.024597  
      46A      1.066948    47A      1.075784    48A      1.105630  
      49A      1.125088    50A      1.139340    51A      1.280244  
      52A      1.375128    53A      1.381222    54A      1.510923  
      55A      1.558965    56A      1.654816    57A      1.715546  
      58A      1.777588    59A      2.045721    60A      2.469753  
      61A      2.954783  

    Beta Occupied:                                                        

       1A    -19.030680     2A    -14.242043     3A    -10.131988  
       4A    -10.128182     5A    -10.087712     6A     -0.999919  
       7A     -0.885464     8A     -0.713736     9A     -0.618234  
      10A     -0.571343    11A     -0.517075    12A     -0.476402  
      13A     -0.456903    14A     -0.404803    15A     -0.393375  
      16A     -0.357624    17A     -0.327659    18A     -0.306584  
      19A     -0.285350    20A     -0.185024  

    Beta Virtual:                                                         

      21A      0.001506    22A      0.099859    23A      0.106838  
      24A      0.116230    25A      0.146705    26A      0.173989  
      27A      0.197271    28A      0.214282    29A      0.224399  
      30A      0.235260    31A      0.274882    32A      0.379347  
      33A      0.405854    34A      0.670625    35A      0.702511  
      36A      0.749244    37A      0.783645    38A      0.812075  
      39A      0.821247    40A      0.855068    41A      0.891900  
      42A      0.927056    43A      0.945099    44A      0.983120  
      45A      1.026117    46A      1.071466    47A      1.077445  
      48A      1.112193    49A      1.126555    50A      1.146432  
      51A      1.282913    52A      1.376722    53A      1.390877  
      54A      1.524589    55A      1.572058    56A      1.659946  
      57A      1.721532    58A      1.780945    59A      2.050642  
      60A      2.475214    61A      2.962748  

    Final Occupation by Irrep:
              A 
    DOCC [    20 ]
    SOCC [     1 ]

  Energy converged.

  @DF-UKS Final Energy:  -247.61806052703969

   => Energetics <=

    Nuclear Repulsion Energy =            167.9565102176895266
    One-Electron Energy =                -668.5101804345188157
    Two-Electron Energy =                 280.9403036595669505
    DFT Exchange-Correlation Energy =     -28.0046939697773887
    Empirical Dispersion Energy =           0.0000000000000000
    VV10 Nonlocal Energy =                  0.0000000000000000
    Total Energy =                       -247.6180605270397166


  UHF NO Occupations:
  HONO-2 :   19  A 1.9996729
  HONO-1 :   20  A 1.9900621
  HONO-0 :   21  A 1.0000000
  LUNO+0 :   22  A 0.0099379
  LUNO+1 :   23  A 0.0003271
  LUNO+2 :   24  A 0.0001799
  LUNO+3 :   25  A 0.0001579



Properties will be evaluated at   0.000000,   0.000000,   0.000000 [a0]

Properties computed using the SCF density matrix

  Nuclear Dipole Moment: [e a0]
     X:     1.2610      Y:     1.0234      Z:     0.9958

  Electronic Dipole Moment: [e a0]
     X:    -0.7601      Y:    -0.8046      Z:    -0.9385

  Dipole Moment: [e a0]
     X:     0.5008      Y:     0.2188      Z:     0.0573     Total:     0.5495

  Dipole Moment: [D]
     X:     1.2730      Y:     0.5561      Z:     0.1457     Total:     1.3968


*** tstop() called on DESKTOP-QL22TIG at Thu Mar 21 14:43:17 2019
Module time:
	user time   =      17.67 seconds =       0.29 minutes
	system time =       0.50 seconds =       0.01 minutes
	total time  =         19 seconds =       0.32 minutes
Total time:
	user time   =      61.45 seconds =       1.02 minutes
	system time =       2.22 seconds =       0.04 minutes
	total time  =         66 seconds =       1.10 minutes

*** tstart() called on DESKTOP-QL22TIG
*** at Thu Mar 21 14:43:17 2019


         ------------------------------------------------------------
                                   SCF GRAD                          
                          Rob Parrish, Justin Turney,                
                       Andy Simmonett, and Alex Sokolov              
         ------------------------------------------------------------

  ==> Geometry <==

    Molecular point group: c1
    Full point group: C1

    Geometry (in Angstrom), charge = 0, multiplicity = 2:

       Center              X                  Y                   Z               Mass       
    ------------   -----------------  -----------------  -----------------  -----------------
         C            0.356978995345     1.013257390004    -0.166403340260    12.000000000000
         H           -0.086809719093     0.686580475113    -1.101411241322     1.007825032070
         H           -0.002826538284     1.950166108984     0.240205637964     1.007825032070
         C            1.545194517889     0.508998477461     0.266595822248    12.000000000000
         H            2.044496412212     0.942975515122     1.127478028340     1.007825032070
         C           -1.428149832013    -0.274714333731     0.650431543692    12.000000000000
         H           -0.858035074732    -1.179545695847     0.819658066393     1.007825032070
         H           -1.787814046783     0.254559388317     1.534530329231     1.007825032070
         N            2.154493170979    -0.641008199701    -0.221605036162    14.003074004780
         H            1.792105667183    -1.086587754365    -1.055930518419     1.007825032070
         H            3.095375773498    -0.879278858655     0.059951509065     1.007825032070
         O           -2.327750938124    -0.443572500911    -0.436164827653    15.994914619560
         H           -2.832797411370     0.403077436964    -0.560723165364     1.007825032070

  Nuclear repulsion =  167.956510217689555

  ==> Basis Set <==

  Basis Set: 3-21G
    Blend: 3-21G
    Number of shells: 41
    Number of basis function: 61
    Number of Cartesian functions: 61
    Spherical Harmonics?: false
    Max angular momentum: 1

  ==> DFJKGrad: Density-Fitted SCF Gradients <==

    Gradient:                    1
    J tasked:                  Yes
    K tasked:                  Yes
    wK tasked:                  No
    OpenMP threads:              1
    Integrals threads:           1
    Memory (MB):               375
    Schwarz Cutoff:          0E+00
    Fitting Condition:       1E-12

   => Auxiliary Basis Set <=

  Basis Set: (3-21G AUX)
    Blend: DEF2-SVP-JKFIT
    Number of shells: 173
    Number of basis function: 613
    Number of Cartesian functions: 613
    Spherical Harmonics?: false
    Max angular momentum: 4

  ==> DFT Potential <==

   => Composite Functional: B3LYP <= 

    B3LYP Hyb-GGA Exchange-Correlation Functional

    P. J. Stephens, F. J. Devlin, C. F. Chabalowski, and M. J. Frisch, J. Phys. Chem. 98, 11623 (1994)

    Deriv               =              1
    GGA                 =           TRUE
    Meta                =          FALSE

    Exchange Hybrid     =           TRUE
    MP2 Hybrid          =          FALSE

   => Exchange Functionals <=

    0.0800   Slater exchange
    0.7200         Becke 88

   => Exact (HF) Exchange <=

    0.2000               HF 

   => Correlation Functionals <=

    0.1900   Vosko, Wilk & Nusair (VWN5_RPA)
    0.8100   Lee, Yang & Parr

   => Molecular Quadrature <=

    Radial Scheme       =       TREUTLER
    Pruning Scheme      =           FLAT
    Nuclear Scheme      =       TREUTLER

    BS radius alpha     =              1
    Pruning alpha       =              1
    Radial Points       =             75
    Spherical Points    =            302
    Total Points        =         285419
    Total Blocks        =           2197
    Max Points          =            256
    Max Functions       =             57


  -Total Gradient:
     Atom            X                  Y                   Z
    ------   -----------------  -----------------  -----------------
       1        0.000635026353    -0.000440279337     0.000410741850
       2       -0.000141060188     0.000015553630    -0.000209727045
       3       -0.000078190914     0.000170500758     0.000049284361
       4       -0.000425864955     0.000138964562    -0.000174616999
       5       -0.000011685726     0.000019578268    -0.000014721072
       6        0.000100906598     0.000049989695    -0.000118689328
       7        0.000015686501     0.000021197324     0.000033870892
       8       -0.000015999515     0.000013853369    -0.000021217174
       9       -0.000064424462     0.000003068924     0.000028155614
      10        0.000029440938     0.000019913001    -0.000013458298
      11       -0.000023321163     0.000003915570    -0.000002617553
      12       -0.000006257226    -0.000015073594     0.000057130018
      13       -0.000002906592    -0.000014519466    -0.000000887087


*** tstop() called on DESKTOP-QL22TIG at Thu Mar 21 14:43:19 2019
Module time:
	user time   =       2.59 seconds =       0.04 minutes
	system time =       0.09 seconds =       0.00 minutes
	total time  =          2 seconds =       0.03 minutes
Total time:
	user time   =      64.04 seconds =       1.07 minutes
	system time =       2.31 seconds =       0.04 minutes
	total time  =         68 seconds =       1.13 minutes

  //>>>>>>>>>>>>>>>>>>>>>>>>>>>>>>>>>>>//
  //    Loading displacement 3 of 67   //
  //<<<<<<<<<<<<<<<<<<<<<<<<<<<<<<<<<<<//
gradient() will perform analytic gradient computation.

*** tstart() called on DESKTOP-QL22TIG
*** at Thu Mar 21 14:43:19 2019

   => Loading Basis Set <=

    Name: 3-21G
    Role: ORBITAL
    Keyword: BASIS
    atoms 1, 4, 6                entry C          line    68 file /home/wderricotte/src/psi4conda/share/psi4/basis/3-21g.gbs 
    atoms 2-3, 5, 7-8, 10-11, 13 entry H          line    21 file /home/wderricotte/src/psi4conda/share/psi4/basis/3-21g.gbs 
    atoms 9                      entry N          line    79 file /home/wderricotte/src/psi4conda/share/psi4/basis/3-21g.gbs 
    atoms 12                     entry O          line    90 file /home/wderricotte/src/psi4conda/share/psi4/basis/3-21g.gbs 


         ---------------------------------------------------------
                                   SCF
            by Justin Turney, Rob Parrish, Andy Simmonett
                             and Daniel Smith
                              UKS Reference
                        1 Threads,    500 MiB Core
         ---------------------------------------------------------

  ==> Geometry <==

    Molecular point group: c1
    Full point group: C1

    Geometry (in Angstrom), charge = 0, multiplicity = 2:

       Center              X                  Y                   Z               Mass       
    ------------   -----------------  -----------------  -----------------  -----------------
         C            0.356299825253     1.012549211787    -0.166370126968    12.000000000000
         H           -0.086650511149     0.686752804732    -1.101390543478     1.007825032070
         H           -0.002643741533     1.950295001018     0.240265769771     1.007825032070
         C            1.545341832240     0.509088601149     0.266620033938    12.000000000000
         H            2.044649623009     0.943026845334     1.127518375356     1.007825032070
         C           -1.428023845253    -0.274563144438     0.650415204121    12.000000000000
         H           -0.857932206220    -1.179413703506     0.819616960984     1.007825032070
         H           -1.787679954106     0.254692128870     1.534528332055     1.007825032070
         N            2.154614978195    -0.640917957524    -0.221612936121    14.003074004780
         H            1.792221147008    -1.086462894729    -1.055954157282     1.007825032070
         H            3.095490186295    -0.879220369216     0.059941443758     1.007825032070
         O           -2.327623103346    -0.443365742160    -0.436191331074    15.994914619560
         H           -2.832648131064     0.403300419689    -0.560726338902     1.007825032070

  Running in c1 symmetry.

  Rotational constants: A =      0.33504  B =      0.06675  C =      0.06238 [cm^-1]
  Rotational constants: A =  10044.13385  B =   2001.21398  C =   1870.07124 [MHz]
  Nuclear repulsion =  167.959921929892090

  Charge       = 0
  Multiplicity = 2
  Electrons    = 41
  Nalpha       = 21
  Nbeta        = 20

  ==> Algorithm <==

  SCF Algorithm Type is DF.
  DIIS enabled.
  MOM disabled.
  Fractional occupation disabled.
  Guess Type is GWH.
  Energy threshold   = 1.00e-08
  Density threshold  = 1.00e-08
  Integral threshold = 0.00e+00

  ==> Primary Basis <==

  Basis Set: 3-21G
    Blend: 3-21G
    Number of shells: 41
    Number of basis function: 61
    Number of Cartesian functions: 61
    Spherical Harmonics?: false
    Max angular momentum: 1

  ==> DFT Potential <==

   => Composite Functional: B3LYP <= 

    B3LYP Hyb-GGA Exchange-Correlation Functional

    P. J. Stephens, F. J. Devlin, C. F. Chabalowski, and M. J. Frisch, J. Phys. Chem. 98, 11623 (1994)

    Deriv               =              1
    GGA                 =           TRUE
    Meta                =          FALSE

    Exchange Hybrid     =           TRUE
    MP2 Hybrid          =          FALSE

   => Exchange Functionals <=

    0.0800   Slater exchange
    0.7200         Becke 88

   => Exact (HF) Exchange <=

    0.2000               HF 

   => Correlation Functionals <=

    0.1900   Vosko, Wilk & Nusair (VWN5_RPA)
    0.8100   Lee, Yang & Parr

   => Molecular Quadrature <=

    Radial Scheme       =       TREUTLER
    Pruning Scheme      =           FLAT
    Nuclear Scheme      =       TREUTLER

    BS radius alpha     =              1
    Pruning alpha       =              1
    Radial Points       =             75
    Spherical Points    =            302
    Total Points        =         285418
    Total Blocks        =           2200
    Max Points          =            256
    Max Functions       =             57

   => Loading Basis Set <=

    Name: (3-21G AUX)
    Role: JKFIT
    Keyword: DF_BASIS_SCF
    atoms 1, 4, 6                entry C          line   203 file /home/wderricotte/src/psi4conda/share/psi4/basis/def2-svp-jkfit.gbs 
    atoms 2-3, 5, 7-8, 10-11, 13 entry H          line    23 file /home/wderricotte/src/psi4conda/share/psi4/basis/def2-svp-jkfit.gbs 
    atoms 9                      entry N          line   263 file /home/wderricotte/src/psi4conda/share/psi4/basis/def2-svp-jkfit.gbs 
    atoms 12                     entry O          line   323 file /home/wderricotte/src/psi4conda/share/psi4/basis/def2-svp-jkfit.gbs 

  ==> Pre-Iterations <==

   -------------------------------------------------------
    Irrep   Nso     Nmo     Nalpha   Nbeta   Ndocc  Nsocc
   -------------------------------------------------------
     A         61      61       0       0       0       0
   -------------------------------------------------------
    Total      61      61      21      20      20       1
   -------------------------------------------------------

  ==> Integral Setup <==

  ==> DiskDFJK: Density-Fitted J/K Matrices <==

    J tasked:                  Yes
    K tasked:                  Yes
    wK tasked:                  No
    OpenMP threads:              1
    Integrals threads:           1
    Memory (MB):               375
    Algorithm:                Core
    Integral Cache:           NONE
    Schwarz Cutoff:          1E-12
    Fitting Condition:       1E-12

   => Auxiliary Basis Set <=

  Basis Set: (3-21G AUX)
    Blend: DEF2-SVP-JKFIT
    Number of shells: 173
    Number of basis function: 613
    Number of Cartesian functions: 613
    Spherical Harmonics?: false
    Max angular momentum: 4

  Minimum eigenvalue in the overlap matrix is 1.1907842550E-02.
  Using Symmetric Orthogonalization.

  SCF Guess: Generalized Wolfsberg-Helmholtz.

  ==> Iterations <==

                           Total Energy        Delta E     RMS |[F,P]|

   @DF-UKS iter   1:  -245.21222229248065   -2.45212e+02   4.83384e-02 
   @DF-UKS iter   2:  -243.10078200094983    2.11144e+00   4.45109e-02 DIIS
   @DF-UKS iter   3:  -245.18161679362720   -2.08083e+00   3.08949e-02 DIIS
   @DF-UKS iter   4:  -247.41816877710016   -2.23655e+00   1.02665e-02 DIIS
   @DF-UKS iter   5:  -247.52526221221297   -1.07093e-01   6.48885e-03 DIIS
   @DF-UKS iter   6:  -247.60765403418168   -8.23918e-02   2.19981e-03 DIIS
   @DF-UKS iter   7:  -247.61700015421559   -9.34612e-03   6.32739e-04 DIIS
   @DF-UKS iter   8:  -247.61781856794460   -8.18414e-04   2.88480e-04 DIIS
   @DF-UKS iter   9:  -247.61802704600871   -2.08478e-04   6.97000e-05 DIIS
   @DF-UKS iter  10:  -247.61805407131578   -2.70253e-05   2.65724e-05 DIIS
   @DF-UKS iter  11:  -247.61805863269433   -4.56138e-06   2.20279e-05 DIIS
   @DF-UKS iter  12:  -247.61806012598959   -1.49330e-06   4.44720e-06 DIIS
   @DF-UKS iter  13:  -247.61806029526451   -1.69275e-07   1.66699e-06 DIIS
   @DF-UKS iter  14:  -247.61806033502774   -3.97632e-08   5.57485e-07 DIIS
   @DF-UKS iter  15:  -247.61806033729886   -2.27112e-09   1.33247e-07 DIIS
   @DF-UKS iter  16:  -247.61806033743198   -1.33127e-10   1.09826e-07 DIIS
   @DF-UKS iter  17:  -247.61806033745870   -2.67164e-11   2.84684e-08 DIIS
   @DF-UKS iter  18:  -247.61806033746143   -2.72848e-12   8.69772e-09 DIIS

  ==> Post-Iterations <==

   @Spin Contamination Metric:   2.186927637E-02
   @S^2 Expected:                7.500000000E-01
   @S^2 Observed:                7.718692764E-01
   @S   Expected:                5.000000000E-01
   @S   Observed:                5.000000000E-01

    Orbital Energies [Eh]
    ---------------------

    Alpha Occupied:                                                       

       1A    -19.034134     2A    -14.244213     3A    -10.139812  
       4A    -10.136369     5A    -10.085730     6A     -1.009083  
       7A     -0.891781     8A     -0.717551     9A     -0.639605  
      10A     -0.574497    11A     -0.518680    12A     -0.484379  
      13A     -0.459845    14A     -0.411371    15A     -0.396225  
      16A     -0.365890    17A     -0.346830    18A     -0.322864  
      19A     -0.300216    20A     -0.203205    21A     -0.111464  

    Alpha Virtual:                                                        

      22A      0.083229    23A      0.102012    24A      0.108288  
      25A      0.145273    26A      0.167250    27A      0.194100  
      28A      0.212937    29A      0.215085    30A      0.231797  
      31A      0.261191    32A      0.373478    33A      0.404250  
      34A      0.666419    35A      0.695851    36A      0.739918  
      37A      0.763747    38A      0.794369    39A      0.817812  
      40A      0.846670    41A      0.887583    42A      0.916698  
      43A      0.943602    44A      0.979979    45A      1.024478  
      46A      1.066869    47A      1.075847    48A      1.105684  
      49A      1.125076    50A      1.139356    51A      1.280128  
      52A      1.375001    53A      1.381358    54A      1.510818  
      55A      1.559029    56A      1.654896    57A      1.715456  
      58A      1.777697    59A      2.046032    60A      2.469461  
      61A      2.954921  

    Beta Occupied:                                                        

       1A    -19.030654     2A    -14.242042     3A    -10.131960  
       4A    -10.128228     5A    -10.087781     6A     -0.999909  
       7A     -0.885443     8A     -0.713662     9A     -0.618249  
      10A     -0.571362    11A     -0.517049    12A     -0.476402  
      13A     -0.456912    14A     -0.404770    15A     -0.393248  
      16A     -0.357711    17A     -0.327676    18A     -0.306533  
      19A     -0.285347    20A     -0.185037  

    Beta Virtual:                                                         

      21A      0.001487    22A      0.099882    23A      0.106836  
      24A      0.116257    25A      0.146716    26A      0.173968  
      27A      0.197291    28A      0.214326    29A      0.224391  
      30A      0.235273    31A      0.274874    32A      0.379246  
      33A      0.405672    34A      0.670762    35A      0.702476  
      36A      0.749352    37A      0.783501    38A      0.812110  
      39A      0.821145    40A      0.855088    41A      0.891921  
      42A      0.927159    43A      0.945068    44A      0.983132  
      45A      1.025989    46A      1.071375    47A      1.077526  
      48A      1.112270    49A      1.126544    50A      1.146462  
      51A      1.282804    52A      1.376631    53A      1.390987  
      54A      1.524485    55A      1.572105    56A      1.660018  
      57A      1.721453    58A      1.781048    59A      2.050938  
      60A      2.474947    61A      2.962872  

    Final Occupation by Irrep:
              A 
    DOCC [    20 ]
    SOCC [     1 ]

  Energy converged.

  @DF-UKS Final Energy:  -247.61806033746143

   => Energetics <=

    Nuclear Repulsion Energy =            167.9599219298920900
    One-Electron Energy =                -668.5173820831705598
    Two-Electron Energy =                 280.9439821666580315
    DFT Exchange-Correlation Energy =     -28.0045823508409875
    Empirical Dispersion Energy =           0.0000000000000000
    VV10 Nonlocal Energy =                  0.0000000000000000
    Total Energy =                       -247.6180603374614577


  UHF NO Occupations:
  HONO-2 :   19  A 1.9996738
  HONO-1 :   20  A 1.9899954
  HONO-0 :   21  A 1.0000000
  LUNO+0 :   22  A 0.0100046
  LUNO+1 :   23  A 0.0003262
  LUNO+2 :   24  A 0.0001794
  LUNO+3 :   25  A 0.0001575



Properties will be evaluated at   0.000000,   0.000000,   0.000000 [a0]

Properties computed using the SCF density matrix

  Nuclear Dipole Moment: [e a0]
     X:     1.2620      Y:     1.0244      Z:     0.9958

  Electronic Dipole Moment: [e a0]
     X:    -0.7608      Y:    -0.8055      Z:    -0.9389

  Dipole Moment: [e a0]
     X:     0.5012      Y:     0.2189      Z:     0.0570     Total:     0.5499

  Dipole Moment: [D]
     X:     1.2740      Y:     0.5563      Z:     0.1448     Total:     1.3976


*** tstop() called on DESKTOP-QL22TIG at Thu Mar 21 14:43:39 2019
Module time:
	user time   =      19.17 seconds =       0.32 minutes
	system time =       0.67 seconds =       0.01 minutes
	total time  =         20 seconds =       0.33 minutes
Total time:
	user time   =      83.21 seconds =       1.39 minutes
	system time =       3.00 seconds =       0.05 minutes
	total time  =         88 seconds =       1.47 minutes

*** tstart() called on DESKTOP-QL22TIG
*** at Thu Mar 21 14:43:39 2019


         ------------------------------------------------------------
                                   SCF GRAD                          
                          Rob Parrish, Justin Turney,                
                       Andy Simmonett, and Alex Sokolov              
         ------------------------------------------------------------

  ==> Geometry <==

    Molecular point group: c1
    Full point group: C1

    Geometry (in Angstrom), charge = 0, multiplicity = 2:

       Center              X                  Y                   Z               Mass       
    ------------   -----------------  -----------------  -----------------  -----------------
         C            0.356299825253     1.012549211787    -0.166370126968    12.000000000000
         H           -0.086650511149     0.686752804732    -1.101390543478     1.007825032070
         H           -0.002643741533     1.950295001018     0.240265769771     1.007825032070
         C            1.545341832240     0.509088601149     0.266620033938    12.000000000000
         H            2.044649623009     0.943026845334     1.127518375356     1.007825032070
         C           -1.428023845253    -0.274563144438     0.650415204121    12.000000000000
         H           -0.857932206220    -1.179413703506     0.819616960984     1.007825032070
         H           -1.787679954106     0.254692128870     1.534528332055     1.007825032070
         N            2.154614978195    -0.640917957524    -0.221612936121    14.003074004780
         H            1.792221147008    -1.086462894729    -1.055954157282     1.007825032070
         H            3.095490186295    -0.879220369216     0.059941443758     1.007825032070
         O           -2.327623103346    -0.443365742160    -0.436191331074    15.994914619560
         H           -2.832648131064     0.403300419689    -0.560726338902     1.007825032070

  Nuclear repulsion =  167.959921929892090

  ==> Basis Set <==

  Basis Set: 3-21G
    Blend: 3-21G
    Number of shells: 41
    Number of basis function: 61
    Number of Cartesian functions: 61
    Spherical Harmonics?: false
    Max angular momentum: 1

  ==> DFJKGrad: Density-Fitted SCF Gradients <==

    Gradient:                    1
    J tasked:                  Yes
    K tasked:                  Yes
    wK tasked:                  No
    OpenMP threads:              1
    Integrals threads:           1
    Memory (MB):               375
    Schwarz Cutoff:          0E+00
    Fitting Condition:       1E-12

   => Auxiliary Basis Set <=

  Basis Set: (3-21G AUX)
    Blend: DEF2-SVP-JKFIT
    Number of shells: 173
    Number of basis function: 613
    Number of Cartesian functions: 613
    Spherical Harmonics?: false
    Max angular momentum: 4

  ==> DFT Potential <==

   => Composite Functional: B3LYP <= 

    B3LYP Hyb-GGA Exchange-Correlation Functional

    P. J. Stephens, F. J. Devlin, C. F. Chabalowski, and M. J. Frisch, J. Phys. Chem. 98, 11623 (1994)

    Deriv               =              1
    GGA                 =           TRUE
    Meta                =          FALSE

    Exchange Hybrid     =           TRUE
    MP2 Hybrid          =          FALSE

   => Exchange Functionals <=

    0.0800   Slater exchange
    0.7200         Becke 88

   => Exact (HF) Exchange <=

    0.2000               HF 

   => Correlation Functionals <=

    0.1900   Vosko, Wilk & Nusair (VWN5_RPA)
    0.8100   Lee, Yang & Parr

   => Molecular Quadrature <=

    Radial Scheme       =       TREUTLER
    Pruning Scheme      =           FLAT
    Nuclear Scheme      =       TREUTLER

    BS radius alpha     =              1
    Pruning alpha       =              1
    Radial Points       =             75
    Spherical Points    =            302
    Total Points        =         285418
    Total Blocks        =           2200
    Max Points          =            256
    Max Functions       =             57


  -Total Gradient:
     Atom            X                  Y                   Z
    ------   -----------------  -----------------  -----------------
       1        0.000369478758    -0.000793159375    -0.000247278686
       2        0.000025013715     0.000152030983     0.000124898254
       3       -0.000109452692     0.000420740496     0.000190416549
       4       -0.000196933836     0.000157743842    -0.000056503498
       5        0.000022846499    -0.000002398129     0.000001353884
       6       -0.000026220195    -0.000029708494    -0.000060293438
       7        0.000032867323     0.000030423966     0.000025191640
       8       -0.000015403345     0.000021658175    -0.000022647208
       9       -0.000098302443     0.000017958947     0.000027233683
      10        0.000027726185     0.000021963831    -0.000014874283
      11       -0.000028579358     0.000008797782     0.000001020427
      12        0.000014145784    -0.000004343709     0.000056076475
      13       -0.000005777781    -0.000014999628    -0.000001283822


*** tstop() called on DESKTOP-QL22TIG at Thu Mar 21 14:43:42 2019
Module time:
	user time   =       2.73 seconds =       0.05 minutes
	system time =       0.09 seconds =       0.00 minutes
	total time  =          3 seconds =       0.05 minutes
Total time:
	user time   =      85.96 seconds =       1.43 minutes
	system time =       3.09 seconds =       0.05 minutes
	total time  =         91 seconds =       1.52 minutes

  //>>>>>>>>>>>>>>>>>>>>>>>>>>>>>>>>>>>//
  //    Loading displacement 4 of 67   //
  //<<<<<<<<<<<<<<<<<<<<<<<<<<<<<<<<<<<//
gradient() will perform analytic gradient computation.

*** tstart() called on DESKTOP-QL22TIG
*** at Thu Mar 21 14:43:42 2019

   => Loading Basis Set <=

    Name: 3-21G
    Role: ORBITAL
    Keyword: BASIS
    atoms 1, 4, 6                entry C          line    68 file /home/wderricotte/src/psi4conda/share/psi4/basis/3-21g.gbs 
    atoms 2-3, 5, 7-8, 10-11, 13 entry H          line    21 file /home/wderricotte/src/psi4conda/share/psi4/basis/3-21g.gbs 
    atoms 9                      entry N          line    79 file /home/wderricotte/src/psi4conda/share/psi4/basis/3-21g.gbs 
    atoms 12                     entry O          line    90 file /home/wderricotte/src/psi4conda/share/psi4/basis/3-21g.gbs 


         ---------------------------------------------------------
                                   SCF
            by Justin Turney, Rob Parrish, Andy Simmonett
                             and Daniel Smith
                              UKS Reference
                        1 Threads,    500 MiB Core
         ---------------------------------------------------------

  ==> Geometry <==

    Molecular point group: c1
    Full point group: C1

    Geometry (in Angstrom), charge = 0, multiplicity = 2:

       Center              X                  Y                   Z               Mass       
    ------------   -----------------  -----------------  -----------------  -----------------
         C            0.356299825253     1.013936903193    -0.166437109656    12.000000000000
         H           -0.086620695651     0.686408473564    -1.101437230654     1.007825032070
         H           -0.002582976563     1.950038817270     0.240134123489     1.007825032070
[...]

  Vibration                       16                  17                  18          
  Freq [cm^-1]                 522.0733            723.5144            787.6948       
  Irrep                           A                   A                   A           
  Reduced mass [u]              1.1208              1.4827              1.0502        
  Force const [mDyne/A]         0.1800              0.4573              0.3839        
  Turning point v=0 [a0]        0.4536              0.3350              0.3815        
  RMS dev v=0 [a0 u^1/2]        0.3396              0.2885              0.2765        
  Char temp [K]                751.1460           1040.9746           1133.3157       
  ----------------------------------------------------------------------------------
      1   C               -0.01  0.02  0.01   -0.01 -0.05 -0.02    0.04 -0.02 -0.01   
      2   H               -0.06  0.08  0.02    0.24  0.32 -0.27   -0.24 -0.24  0.21   
      3   H               -0.01 -0.02  0.10   -0.29 -0.32  0.36   -0.34 -0.33  0.35   
      4   C                0.00  0.02 -0.03    0.11  0.12 -0.10   -0.01  0.01 -0.00   
      5   H               -0.01  0.00 -0.02   -0.30 -0.31  0.36   -0.02  0.02 -0.01   
      6   C                0.03 -0.07 -0.02   -0.02  0.01  0.02   -0.03 -0.01 -0.02   
      7   H               -0.38 -0.26  0.35   -0.07 -0.02  0.03    0.42  0.27 -0.20   
      8   H                0.28  0.51 -0.28   -0.17 -0.15  0.07    0.31  0.31 -0.10   
      9   N               -0.01 -0.01  0.02   -0.02 -0.02  0.03   -0.01  0.01  0.00   
     10   H                0.09  0.06 -0.07   -0.05  0.02  0.02   -0.01 -0.01  0.01   
     11   H               -0.04 -0.03  0.09   -0.06 -0.14  0.05   -0.03 -0.03  0.04   
     12   O                0.02  0.02 -0.02    0.01  0.00  0.00    0.01  0.01  0.01   
     13   H               -0.28 -0.11  0.32   -0.01 -0.01 -0.01    0.03  0.01 -0.05   

  Vibration                       19                  20                  21          
  Freq [cm^-1]                 880.7068            947.3967           1003.8593       
  Irrep                           A                   A                   A           
  Reduced mass [u]              1.3504              1.1539              1.4032        
  Force const [mDyne/A]         0.6171              0.6102              0.8332        
  Turning point v=0 [a0]        0.3182              0.3319              0.2924        
  RMS dev v=0 [a0 u^1/2]        0.2614              0.2521              0.2449        
  Char temp [K]               1267.1391           1363.0909           1444.3278       
  ----------------------------------------------------------------------------------
      1   C               -0.07 -0.02  0.05    0.00 -0.06 -0.04    0.04 -0.10 -0.04   
      2   H                0.26  0.18 -0.19    0.24  0.50 -0.35   -0.45  0.14  0.13   
      3   H                0.28  0.31 -0.38    0.08 -0.16  0.27    0.64  0.05  0.16   
      4   C                0.02  0.04 -0.02   -0.02 -0.04  0.04    0.02 -0.04 -0.05   
      5   H               -0.12 -0.17  0.17    0.28  0.43 -0.38   -0.33  0.00  0.13   
      6   C               -0.11 -0.08  0.02   -0.05 -0.02  0.00    0.03  0.00  0.03   
      7   H                0.40  0.24 -0.16    0.07  0.05 -0.04    0.08  0.04  0.04   
      8   H                0.29  0.32 -0.09    0.02  0.03 -0.00    0.02  0.03  0.01   
      9   N                0.02 -0.02 -0.01   -0.01  0.02  0.02   -0.03  0.09  0.05   
     10   H               -0.02 -0.08  0.04   -0.04  0.16 -0.04   -0.22  0.26  0.04   
     11   H                0.03 -0.01 -0.03   -0.03 -0.07 -0.01   -0.03 -0.08 -0.12   
     12   O                0.03  0.01  0.01    0.02  0.01  0.02   -0.03 -0.01 -0.04   
     13   H                0.02  0.00  0.01   -0.00 -0.02 -0.00    0.04  0.05  0.05   

  Vibration                       22                  23                  24          
  Freq [cm^-1]                1040.9877           1046.5554           1100.4351       
  Irrep                           A                   A                   A           
  Reduced mass [u]              1.8272              1.6957              1.6439        
  Force const [mDyne/A]         1.1666              1.0943              1.1729        
  Turning point v=0 [a0]        0.2516              0.2605              0.2580        
  RMS dev v=0 [a0 u^1/2]        0.2405              0.2398              0.2339        
  Char temp [K]               1497.7472           1505.7580           1583.2786       
  ----------------------------------------------------------------------------------
      1   C                0.03 -0.03  0.01    0.10 -0.07  0.06   -0.01  0.01 -0.00   
      2   H               -0.10 -0.06  0.09    0.33 -0.08 -0.05    0.08  0.05 -0.06   
      3   H                0.19  0.02  0.02    0.10 -0.06  0.01   -0.07 -0.01 -0.01   
      4   C               -0.00 -0.01 -0.03   -0.01 -0.05 -0.08    0.00  0.00  0.01   
      5   H               -0.09 -0.06  0.04    0.15 -0.24 -0.08    0.05  0.01 -0.02   
      6   C               -0.11  0.02 -0.12    0.02  0.00  0.02    0.05  0.05  0.17   
      7   H               -0.43 -0.24 -0.41    0.07  0.04  0.06   -0.16 -0.17 -0.29   
      8   H                0.24 -0.11  0.10   -0.03  0.02 -0.01    0.64  0.02  0.43   
      9   N               -0.03  0.04  0.01   -0.13  0.10 -0.00    0.00 -0.01 -0.00   
     10   H                0.00  0.00  0.02    0.31 -0.30  0.03    0.02 -0.01 -0.01   
     11   H               -0.03  0.09  0.04   -0.11  0.61  0.35    0.00  0.00  0.00   
     12   O                0.11  0.03  0.13   -0.02 -0.00 -0.02   -0.05 -0.02 -0.11   
     13   H               -0.26 -0.31 -0.45    0.03  0.05  0.08   -0.23 -0.15 -0.34   

  Vibration                       25                  26                  27          
  Freq [cm^-1]                1294.9267           1338.4009           1376.6006       
  Irrep                           A                   A                   A           
  Reduced mass [u]              2.0792              1.3083              1.2645        
  Force const [mDyne/A]         2.0542              1.3808              1.4118        
  Turning point v=0 [a0]        0.2115              0.2622              0.2630        
  RMS dev v=0 [a0 u^1/2]        0.2156              0.2121              0.2091        
  Char temp [K]               1863.1083           1925.6579           1980.6187       
  ----------------------------------------------------------------------------------
      1   C               -0.01 -0.07 -0.09   -0.08  0.01 -0.08   -0.00  0.00 -0.00   
      2   H               -0.41  0.21  0.02   -0.33  0.15 -0.02   -0.01 -0.02  0.01   
      3   H                0.33 -0.02  0.16   -0.08  0.01 -0.05    0.00 -0.01  0.02   
      4   C                0.04  0.16  0.18    0.08 -0.04  0.04    0.00  0.01  0.00   
      5   H                0.02  0.17  0.19    0.66 -0.62 -0.00   -0.00  0.01  0.01   
      6   C                0.00 -0.00  0.00   -0.01 -0.01 -0.00   -0.08  0.08 -0.03   
      7   H                0.00 -0.01  0.00    0.01  0.01 -0.01   -0.27 -0.07 -0.28   
      8   H               -0.03 -0.00 -0.01    0.01  0.01 -0.01    0.28 -0.03  0.19   
      9   N               -0.04 -0.09 -0.11   -0.01  0.05  0.04   -0.00 -0.00 -0.00   
     10   H                0.35 -0.49 -0.06   -0.03  0.08  0.04    0.01 -0.01 -0.00   
     11   H               -0.02  0.30  0.19   -0.00  0.03  0.00    0.00  0.00  0.00   
     12   O               -0.00  0.00  0.00    0.00  0.00  0.00    0.03 -0.07 -0.02   
     13   H               -0.01 -0.01 -0.04    0.01 -0.00 -0.00    0.43  0.30  0.66   

  Vibration                       28                  29                  30          
  Freq [cm^-1]                1504.2355           1518.9736           1628.2027       
  Irrep                           A                   A                   A           
  Reduced mass [u]              1.2235              1.1074              2.6410        
  Force const [mDyne/A]         1.6312              1.5054              4.1251        
  Turning point v=0 [a0]        0.2558              0.2675              0.1673        
  RMS dev v=0 [a0 u^1/2]        0.2001              0.1991              0.1923        
  Char temp [K]               2164.2566           2185.4615           2342.6176       
  ----------------------------------------------------------------------------------
      1   C               -0.04  0.01 -0.03    0.00  0.00  0.00   -0.18  0.12 -0.08   
      2   H                0.37 -0.46 -0.04   -0.04  0.02  0.01    0.25 -0.49 -0.10   
      3   H                0.49 -0.02  0.47   -0.02  0.00 -0.02    0.18  0.07  0.40   
      4   C               -0.09  0.08 -0.01    0.01 -0.01  0.00    0.24 -0.17  0.04   
      5   H                0.24 -0.26 -0.03   -0.02  0.02  0.01   -0.29  0.38  0.10   
      6   C                0.00  0.00 -0.01   -0.05 -0.00 -0.08   -0.01 -0.01  0.01   
      7   H                0.00  0.01  0.06    0.10  0.22  0.69    0.02  0.00 -0.03   
      8   H                0.03 -0.03  0.03    0.44 -0.35  0.36   -0.01  0.04 -0.03   
      9   N                0.03 -0.02  0.01   -0.00  0.00 -0.00   -0.05  0.03 -0.01   
     10   H                0.01  0.01 -0.00    0.00  0.00 -0.00   -0.01 -0.01  0.00   
     11   H                0.03 -0.16 -0.11   -0.00  0.02  0.01   -0.05  0.27  0.17   
     12   O               -0.00  0.00 -0.00    0.00  0.01 -0.01    0.00  0.00  0.00   
     13   H               -0.01 -0.00 -0.01   -0.02 -0.01 -0.02   -0.02 -0.01 -0.01   

  Vibration                       31                  32                  33          
  Freq [cm^-1]                1700.6565           3074.7432           3162.1108       
  Irrep                           A                   A                   A           
  Reduced mass [u]              1.1430              1.0551              1.0582        
  Force const [mDyne/A]         1.9478              5.8770              6.2338        
  Turning point v=0 [a0]        0.2489              0.1926              0.1897        
  RMS dev v=0 [a0 u^1/2]        0.1881              0.1399              0.1380        
  Char temp [K]               2446.8624           4423.8641           4549.5665       
  ----------------------------------------------------------------------------------
      1   C               -0.01  0.01 -0.00   -0.00  0.00  0.00   -0.05  0.02 -0.04   
      2   H               -0.01  0.01  0.00   -0.00 -0.00  0.00    0.33  0.25  0.69   
      3   H               -0.03  0.01 -0.02    0.01 -0.01 -0.01    0.19 -0.50 -0.23   
      4   C                0.02 -0.03  0.00    0.00  0.00  0.00    0.00 -0.01 -0.01   
      5   H               -0.05  0.05  0.00   -0.00 -0.00 -0.00    0.06  0.05  0.10   
      6   C               -0.00 -0.00 -0.00    0.00 -0.01 -0.06   -0.00 -0.00  0.00   
      7   H                0.00  0.00  0.00    0.23 -0.33  0.03   -0.00  0.00 -0.00   
      8   H                0.00  0.00  0.00   -0.29  0.48  0.72    0.00 -0.00 -0.01   
      9   N               -0.05  0.07  0.04    0.00  0.00  0.00    0.00 -0.00  0.00   
     10   H                0.59 -0.39 -0.01   -0.00 -0.00 -0.00   -0.00  0.00 -0.00   
     11   H               -0.00 -0.46 -0.51    0.00  0.00  0.00   -0.00  0.00  0.00   
     12   O                0.00  0.00  0.00    0.00  0.00 -0.00    0.00  0.00  0.00   
     13   H               -0.00 -0.00 -0.00    0.00 -0.01  0.00    0.00 -0.00  0.00   

  Vibration                       34                  35                  36          
  Freq [cm^-1]                3176.7053           3237.7688           3252.7704       
  Irrep                           A                   A                   A           
  Reduced mass [u]              1.0889              1.1113              1.1131        
  Force const [mDyne/A]         6.4740              6.8639              6.9390        
  Turning point v=0 [a0]        0.1866              0.1829              0.1824        
  RMS dev v=0 [a0 u^1/2]        0.1377              0.1364              0.1360        
  Char temp [K]               4570.5646           4658.4214           4680.0053       
  ----------------------------------------------------------------------------------
      1   C                0.01  0.01  0.02   -0.00  0.01  0.01    0.01 -0.07 -0.06   
      2   H               -0.08 -0.06 -0.16   -0.04 -0.03 -0.07    0.24  0.16  0.47   
      3   H                0.02 -0.05 -0.02    0.04 -0.11 -0.05   -0.28  0.69  0.30   
      4   C               -0.04 -0.03 -0.07    0.00  0.00  0.00   -0.01 -0.01 -0.01   
      5   H                0.45  0.39  0.77   -0.01 -0.01 -0.02    0.07  0.06  0.12   
      6   C                0.00  0.00 -0.00    0.05 -0.08 -0.01    0.01 -0.01 -0.00   
      7   H               -0.00 -0.00  0.00   -0.49  0.76 -0.13   -0.07  0.11 -0.02   
      8   H               -0.00  0.00  0.00   -0.12  0.17  0.30   -0.02  0.03  0.05   
      9   N                0.00  0.00  0.00    0.00 -0.00 -0.00   -0.00  0.00  0.00   
     10   H               -0.01 -0.01 -0.02   -0.00 -0.00  0.00   -0.00  0.00 -0.00   
     11   H               -0.01 -0.00 -0.01   -0.00  0.00  0.00   -0.00  0.00 -0.00   
     12   O               -0.00 -0.00  0.00   -0.00  0.00 -0.00   -0.00  0.00  0.00   
     13   H               -0.00  0.00 -0.00    0.03 -0.06  0.00    0.01 -0.01  0.00   

  Vibration                       37                  38                  39          
  Freq [cm^-1]                3485.7863           3541.7008           3661.0254       
  Irrep                           A                   A                   A           
  Reduced mass [u]              1.0661              1.0443              1.1018        
  Force const [mDyne/A]         7.6320              7.7180              8.7011        
  Turning point v=0 [a0]        0.1800              0.1804              0.1728        
  RMS dev v=0 [a0 u^1/2]        0.1314              0.1304              0.1282        
  Char temp [K]               5015.2627           5095.7111           5267.3924       
  ----------------------------------------------------------------------------------
      1   C               -0.00  0.00 -0.00   -0.00  0.00  0.00    0.00 -0.00  0.00   
      2   H                0.00  0.00  0.00    0.00 -0.00 -0.00    0.00 -0.00 -0.00   
      3   H                0.00 -0.00 -0.00    0.00 -0.00  0.00   -0.00  0.00  0.00   
      4   C                0.00 -0.00  0.00   -0.00  0.00 -0.00   -0.00 -0.00 -0.00   
      5   H               -0.00  0.00 -0.00    0.00  0.00  0.01    0.01  0.01  0.02   
      6   C                0.00 -0.01 -0.00    0.00  0.00  0.00    0.00 -0.00  0.00   
      7   H               -0.03  0.05 -0.00    0.00 -0.00  0.00   -0.00  0.00 -0.00   
      8   H               -0.01  0.02  0.02   -0.00 -0.00  0.00   -0.00  0.00  0.00   
      9   N                0.00 -0.00 -0.00    0.02 -0.04 -0.03   -0.07 -0.01 -0.05   
     10   H                0.00  0.00  0.01    0.29  0.34  0.63    0.21  0.28  0.51   
     11   H               -0.01  0.00 -0.00   -0.58  0.14 -0.20    0.72 -0.19  0.22   
     12   O                0.03 -0.05  0.01   -0.00  0.00 -0.00    0.00 -0.00  0.00   
     13   H               -0.52  0.84 -0.14    0.00 -0.01  0.00   -0.00  0.00 -0.00   

  ==> Thermochemistry Components <==

  Entropy, S
    Electronic S            1.377 [cal/(mol K)]        5.763 [J/(mol K)]       0.00219507 [mEh/K] (multiplicity = 2)
    Translational S        38.823 [cal/(mol K)]      162.435 [J/(mol K)]       0.06186832 [mEh/K] (mol. weight = 74.0606 [u], P = 101325.00 [Pa])
    Rotational S           26.550 [cal/(mol K)]      111.087 [J/(mol K)]       0.04231088 [mEh/K] (symmetry no. = 1)
    Vibrational S          20.124 [cal/(mol K)]       84.198 [J/(mol K)]       0.03206926 [mEh/K]
  Total S                  86.875 [cal/(mol K)]      363.483 [J/(mol K)]       0.13844352 [mEh/K]
  Correction S              0.000 [cal/(mol K)]        0.000 [J/(mol K)]       0.00000000 [mEh/K]

  Constant volume heat capacity, Cv
    Electronic Cv           0.000 [cal/(mol K)]        0.000 [J/(mol K)]       0.00000000 [mEh/K]
    Translational Cv        2.981 [cal/(mol K)]       12.472 [J/(mol K)]       0.00475022 [mEh/K]
    Rotational Cv           2.981 [cal/(mol K)]       12.472 [J/(mol K)]       0.00475022 [mEh/K]
    Vibrational Cv         19.308 [cal/(mol K)]       80.783 [J/(mol K)]       0.03076869 [mEh/K]
  Total Cv                 25.269 [cal/(mol K)]      105.727 [J/(mol K)]       0.04026914 [mEh/K]
  Correction Cv             0.000 [cal/(mol K)]        0.000 [J/(mol K)]       0.00000000 [mEh/K]

  Constant pressure heat capacity, Cp
    Electronic Cp           0.000 [cal/(mol K)]        0.000 [J/(mol K)]       0.00000000 [mEh/K]
    Translational Cp        4.968 [cal/(mol K)]       20.786 [J/(mol K)]       0.00791704 [mEh/K]
    Rotational Cp           2.981 [cal/(mol K)]       12.472 [J/(mol K)]       0.00475022 [mEh/K]
    Vibrational Cp         19.308 [cal/(mol K)]       80.783 [J/(mol K)]       0.03076869 [mEh/K]
  Total Cp                 27.256 [cal/(mol K)]      114.041 [J/(mol K)]       0.04343595 [mEh/K]
  Correction Cp             0.000 [cal/(mol K)]        0.000 [J/(mol K)]       0.00000000 [mEh/K]

  ==> Thermochemistry Energy Analysis <==

  Raw electronic energy, E0
  Total E0, Electronic energy at well bottom at 0 [K]                 -247.61806099 [Eh]

  Zero-point energy, ZPE_vib = Sum_i nu_i / 2
    Electronic ZPE          0.000 [kcal/mol]        0.000 [kJ/mol]       0.00000000 [Eh]
    Translational ZPE       0.000 [kcal/mol]        0.000 [kJ/mol]       0.00000000 [Eh]
    Rotational ZPE          0.000 [kcal/mol]        0.000 [kJ/mol]       0.00000000 [Eh]
    Vibrational ZPE        67.152 [kcal/mol]      280.965 [kJ/mol]       0.10701404 [Eh]       23486.863 [cm^-1]
  Correction ZPE           67.152 [kcal/mol]      280.965 [kJ/mol]       0.10701404 [Eh]       23486.863 [cm^-1]
  Total ZPE, Electronic energy at 0 [K]                               -247.51104695 [Eh]

  Thermal Energy, E (includes ZPE)
    Electronic E            0.000 [kcal/mol]        0.000 [kJ/mol]       0.00000000 [Eh]
    Translational E         0.889 [kcal/mol]        3.718 [kJ/mol]       0.00141628 [Eh]
    Rotational E            0.889 [kcal/mol]        3.718 [kJ/mol]       0.00141628 [Eh]
    Vibrational E          70.218 [kcal/mol]      293.793 [kJ/mol]       0.11189992 [Eh]
  Correction E             71.996 [kcal/mol]      301.230 [kJ/mol]       0.11473247 [Eh]
  Total E, Electronic energy at  298.15 [K]                           -247.50332851 [Eh]

  Enthalpy, H_trans = E_trans + k_B * T
    Electronic H            0.000 [kcal/mol]        0.000 [kJ/mol]       0.00000000 [Eh]
    Translational H         1.481 [kcal/mol]        6.197 [kJ/mol]       0.00236046 [Eh]
    Rotational H            0.889 [kcal/mol]        3.718 [kJ/mol]       0.00141628 [Eh]
    Vibrational H          70.218 [kcal/mol]      293.793 [kJ/mol]       0.11189992 [Eh]
  Correction H             72.588 [kcal/mol]      303.709 [kJ/mol]       0.11567666 [Eh]
  Total H, Enthalpy at  298.15 [K]                                    -247.50238433 [Eh]

  Gibbs free energy, G = H - T * S
    Electronic G           -0.411 [kcal/mol]       -1.718 [kJ/mol]      -0.00065446 [Eh]
    Translational G       -10.094 [kcal/mol]      -42.233 [kJ/mol]      -0.01608557 [Eh]
    Rotational G           -7.027 [kcal/mol]      -29.402 [kJ/mol]      -0.01119871 [Eh]
    Vibrational G          64.218 [kcal/mol]      268.690 [kJ/mol]       0.10233847 [Eh]
  Correction G             46.687 [kcal/mol]      195.336 [kJ/mol]       0.07439972 [Eh]
  Total G, Free enthalpy at  298.15 [K]                               -247.54366126 [Eh]

    Psi4 stopped on: Thursday, 21 March 2019 03:03PM
    Psi4 wall time for execution: 0:21:34.32

*** Psi4 exiting successfully. Buy a developer a beer!
