[Molden Format]

[FREQ]
        -372.0051929286
          49.2342131321
          82.2487210876
         116.6096551372
         203.3732312683
         276.6080237713
         323.6911075783
         447.2306610431
         466.9149081862
         522.0732622737
         723.5144428421
         787.6947844121
         880.7068033139
         947.3967281551
        1003.8592728554
        1040.9876640609
        1046.5554387492
        1100.4350629632
        1294.9266716535
        1338.4008606322
        1376.6005648909
        1504.2354593649
        1518.9736322323
        1628.2026660244
        1700.6565366539
        3074.7431651363
        3162.1108016880
        3176.7052785336
        3237.7688412929
        3252.7704079735
        3485.7862790941
        3541.7007904776
        3661.0254069910

[FR-COORD]
C          0.6733090909        1.9147518847       -0.3144572661
H         -0.1637175638        1.2974493761       -2.0813706055
H         -0.0049385329        3.6852813717        0.4539121163
C          2.9202910803        0.9617556847        0.5038121691
H          3.8638546067        1.7818214911        2.1306484539
C         -2.6985784272       -0.5190263933        1.2291187820
H         -1.6212865279       -2.2289508059        1.5489236067
H         -3.3782189310        0.4811872657        2.8998153614
N          4.0716211089       -1.2114894188       -0.4187388067
H          3.3867870558       -2.0534907150       -1.9953881547
H          5.8496100620       -1.6618232686        0.1133405821
O         -4.3985751662       -0.8380619815       -0.8242625825
H         -5.3529107346        0.7619109397       -1.0596555300

[FR-NORM-COORD]
vibration 1
          -0.3990738008       -0.3186864792        0.1781710087
           0.1209448235        0.0709574161       -0.2233304626
          -0.1628098197       -0.0896883921       -0.1094433388
          -0.0695913891       -0.0254209537        0.0480195174
          -0.1327302022       -0.0217721024        0.0749567050
           0.4093481483        0.2775257823       -0.2314272899
           0.1068703202        0.0968331648       -0.0699177885
           0.3973706111        0.1791635217       -0.1511858207
          -0.0159014905        0.0141906852       -0.0099063771
          -0.0033987385        0.0302117787       -0.0255846740
           0.0058583931        0.0555105708       -0.0403346521
           0.0314435978        0.0145875949        0.0494364725
           0.0960806292        0.0428742810       -0.0397567389
vibration 2
          -0.0020071442        0.1356108023        0.1071350644
          -0.0892748653        0.2127998590        0.1212311664
           0.1134182260        0.1508923517        0.1739902690
          -0.0244576086       -0.0087353292        0.0031287466
           0.0895217848       -0.1010562253       -0.0166226223
           0.0079297755        0.1344676933        0.0725115984
           0.0851353644        0.2299888760        0.3205389700
          -0.2217938755        0.2349548047       -0.0806501689
          -0.2106499130       -0.0730357825       -0.0794212326
          -0.3473047297       -0.0062998132       -0.0562325031
          -0.2051582658       -0.1832077283       -0.1897914913
           0.2268096217       -0.1507289833       -0.0674531186
           0.1233595471       -0.2428773446       -0.2747027413
vibration 3
           0.0634372013        0.1636748248       -0.0710326663
           0.0828516932        0.2061635221       -0.0950022539
           0.0807118524        0.1641733884       -0.0575684768
          -0.0203113185        0.0504407586        0.0105854891
          -0.0313015391       -0.0042832695        0.0443888040
           0.1818540802       -0.0919786886       -0.1256225222
           0.3713333425       -0.0322474101       -0.4426317763
           0.3117554415       -0.3240044273        0.0653385017
          -0.1706775189       -0.0810910050        0.1087767871
          -0.1600474418        0.0125442316        0.0501726918
          -0.1321596441       -0.0617777573        0.0099105395
          -0.0392574540       -0.0136276037        0.0498287188
          -0.2074440671       -0.0718445739        0.3386912948
vibration 4
          -0.1251654135       -0.0787420992       -0.0282893703
          -0.2491373569       -0.2790846511        0.1019824644
          -0.1408378133       -0.0387787328       -0.1308098181
          -0.0405252207        0.0734853945       -0.0967994213
           0.0667646476        0.2729788152       -0.2594864621
           0.0295613339       -0.1616048081        0.1217828769
          -0.0056111127       -0.2116746315       -0.0345413760
          -0.0454864602       -0.3294022554        0.1882989971
          -0.0841015114       -0.0277237772        0.0761152859
          -0.1959253720       -0.1915586389        0.2095573162
           0.0353540963        0.1756239642       -0.1419851587
           0.1923852729        0.1722898411       -0.0645511299
           0.2709895944        0.2395266420        0.0732478286
vibration 5
          -0.0163988760        0.0096812993       -0.0202470654
          -0.0224385525        0.0004366749       -0.0136003394
           0.0242233907        0.0416936430       -0.0575951039
          -0.0328763251       -0.0176894491        0.0000017550
          -0.0439335876       -0.0206234185        0.0070448781
           0.0247677869       -0.0222391565        0.0176368748
           0.0217938305       -0.0323439611       -0.0187323197
           0.0118025163       -0.0746649685        0.0450179726
           0.0155051719        0.0655615732       -0.0569371734
          -0.0035915510       -0.1398994170        0.0759099697
          -0.3821195673       -0.5739395068        0.6789234086
           0.0248089666        0.0129666486        0.0067961751
           0.0768985090        0.0427648621       -0.0026654704
vibration 6
           0.0037863511       -0.0162121491        0.1272290209
          -0.0507087434       -0.0228542262        0.1552309677
           0.0894342516        0.0412924310        0.0740374925
           0.1299398498        0.0805839562       -0.0517115724
           0.3433473392        0.2469795450       -0.2594303123
          -0.0153441431       -0.0051888684       -0.0648794139
          -0.0761271906       -0.0420043117       -0.0401640702
           0.0039699908       -0.0012709384       -0.0590501810
           0.0090465622        0.0146192864       -0.0032780336
          -0.4474173298       -0.4537742363        0.4529043818
          -0.0302211093       -0.1542700224       -0.0399405179
          -0.0820260445       -0.0314626266       -0.0210375635
          -0.0657153423       -0.0225701228       -0.0308254710
vibration 7
           0.0214952486        0.0314472307       -0.0214209305
           0.0908163548        0.0677986434       -0.0680091673
          -0.0333946658       -0.0086995877        0.0221985154
          -0.0104571222        0.0080664887        0.0234331839
          -0.0459832923       -0.0391306521        0.0673568141
           0.0345844344       -0.0682139402       -0.0172385356
          -0.1912150653       -0.1845326653        0.1302411286
           0.2146314259        0.2024673376       -0.1065601046
          -0.0328613306        0.0141776812       -0.0023629076
          -0.1132668647       -0.0125551350        0.0468596811
          -0.0027781613        0.0310509272       -0.0885661074
          -0.0409453608       -0.0145809521        0.0435761539
           0.6443896786        0.3197503684       -0.4809781445
vibration 8
          -0.0262185431       -0.0145589529        0.0781514827
          -0.1257039455       -0.1019215095        0.1536313363
           0.1083504836        0.1015049647       -0.0625131875
           0.0825521891        0.0747436883       -0.0740153956
           0.2039945681        0.1649741868       -0.1914722638
          -0.0164856945       -0.0074982498       -0.0092871820
           0.0322265227        0.0149113450       -0.0593868767
          -0.0306242492       -0.0527397935        0.0122895065
          -0.0414538606       -0.0644058250        0.0428356712
           0.4395637996        0.4704708453       -0.4612893271
          -0.1064217369       -0.1266353182        0.2315293323
          -0.0370665382       -0.0178660201        0.0014464724
           0.1683991448        0.0805301184       -0.1795857005
vibration 9
           0.0795475200       -0.1216459144       -0.0434830588
           0.3099342020       -0.4672757631       -0.0375265092
          -0.1493932800       -0.0604999161       -0.4016436565
           0.0811511248        0.0745417055        0.1468245274
           0.1088831127        0.0738881891        0.1227831057
          -0.0097172976       -0.0109817601        0.0066554604
          -0.0662202621       -0.0371418223        0.0572578483
           0.0113660578        0.0616552667       -0.0306977415
          -0.1098619175        0.0660807003       -0.0488590834
          -0.2992471809        0.3585310264       -0.1248720080
          -0.1472747170       -0.2278560907       -0.1866015241
           0.0055824251        0.0080029531       -0.0090811112
          -0.1278941437       -0.0548422767        0.1145749391
vibration 10
          -0.0093413529        0.0188071038        0.0117779769
          -0.0609190305        0.0829536529        0.0163143739
          -0.0087957616       -0.0177523025        0.1037019612
           0.0026223128        0.0181799245       -0.0316440918
          -0.0090447205        0.0014723003       -0.0152436851
           0.0256373871       -0.0709306298       -0.0156596716
          -0.3757675272       -0.2553300312        0.3472091568
           0.2839393373        0.5122144650       -0.2751861726
          -0.0114490294       -0.0130300499        0.0153692616
           0.0925380820        0.0550933610       -0.0665648728
          -0.0385792867       -0.0294455370        0.0948150802
           0.0207633858        0.0218880978       -0.0201051274
          -0.2790817852       -0.1113811792        0.3234906710
vibration 11
          -0.0128400608       -0.0504689520       -0.0166803326
           0.2431350663        0.3157080843       -0.2701684886
          -0.2919885630       -0.3223799065        0.3590125807
           0.1146760281        0.1165084493       -0.0986917850
          -0.3003321274       -0.3070690337        0.3593235303
          -0.0219567889        0.0127312441        0.0223960323
          -0.0709534611       -0.0213440173        0.0304329803
          -0.1716438074       -0.1529825517        0.0742316230
          -0.0245690917       -0.0235852923        0.0311549840
          -0.0503682248        0.0170328303        0.0178643769
          -0.0563270493       -0.1415294834        0.0460009918
           0.0064560288        0.0009926128        0.0043246557
          -0.0137198221       -0.0133968172       -0.0111609600
vibration 12
           0.0355965492       -0.0183599858       -0.0085825092
          -0.2395284220       -0.2376047156        0.2078740813
          -0.3350976498       -0.3266396899        0.3512167816
          -0.0146580918        0.0060866115       -0.0047272122
          -0.0187923462        0.0249814022       -0.0117947082
          -0.0326232228       -0.0081466577       -0.0172102418
           0.4192435827        0.2693992895       -0.1965703906
           0.3069429467        0.3109654519       -0.1007517864
          -0.0100593233        0.0073738325        0.0008215467
          -0.0102472993       -0.0054986746        0.0092911523
          -0.0336976724       -0.0288301737        0.0429694849
           0.0102717822        0.0079660325        0.0065219680
           0.0270524834        0.0074836043       -0.0537618631
vibration 13
          -0.0695187761       -0.0237338224        0.0533828504
           0.2626866584        0.1810271438       -0.1887969052
           0.2784765890        0.3079253753       -0.3769175314
           0.0248532380        0.0352474889       -0.0195230769
          -0.1162883860       -0.1710879628        0.1699414522
          -0.1094474235       -0.0770893576        0.0241368341
           0.3972797557        0.2364568962       -0.1645326604
           0.2910141342        0.3194515761       -0.0894438301
           0.0198605776       -0.0167262117       -0.0103141282
          -0.0207381226       -0.0760461096        0.0392708978
           0.0291278877       -0.0087008832       -0.0318996237
           0.0264430031        0.0138178807        0.0051183664
           0.0178186457        0.0048725339        0.0138984492
vibration 14
           0.0023717680       -0.0564146307       -0.0369950187
           0.2415305738        0.4963579610       -0.3479330543
           0.0760117776       -0.1590639047        0.2724625409
          -0.0245221927       -0.0424740786        0.0398318457
           0.2836788001        0.4293340839       -0.3827149012
          -0.0454765543       -0.0163562588        0.0022596742
           0.0692407113        0.0547897873       -0.0412626614
           0.0237072418        0.0307550015       -0.0011658324
          -0.0134226865        0.0238050531        0.0174786113
          -0.0386952961        0.1569770504       -0.0449159229
          -0.0303795140       -0.0664923366       -0.0092196496
           0.0233833823        0.0072048160        0.0158352719
          -0.0044831782       -0.0155569546       -0.0001048886
vibration 15
           0.0428525494       -0.0994669279       -0.0362116595
          -0.4484188304        0.1416264029        0.1276764742
           0.6442127247        0.0537545127        0.1615767402
           0.0202369751       -0.0358538977       -0.0457191041
          -0.3286771682        0.0017692554        0.1341095318
           0.0333948282        0.0043222006        0.0346674545
           0.0842150398        0.0376359816        0.0392264292
           0.0155949904        0.0302242444        0.0083722068
          -0.0278750671        0.0882904090        0.0513475263
          -0.2247850591        0.2592667783        0.0445663945
          -0.0270651423       -0.0810037602       -0.1175179261
          -0.0326130643       -0.0103519203       -0.0379311222
           0.0409997295        0.0540593909        0.0533001923
vibration 16
           0.0324304076       -0.0340871642        0.0104662929
          -0.1036369500       -0.0560039594        0.0879290643
           0.1909360494        0.0238097242        0.0161331930
          -0.0030108270       -0.0122851677       -0.0314580834
          -0.0926157276       -0.0604890364        0.0433709732
          -0.1064453982        0.0234063705       -0.1194067128
          -0.4252386891       -0.2378824380       -0.4083947902
           0.2423976622       -0.1138905157        0.1047590488
          -0.0300046247        0.0381106050        0.0102256197
           0.0008588892        0.0048358704        0.0181145524
          -0.0279214214        0.0889491372        0.0374861424
           0.1140008156        0.0255588089        0.1310649900
          -0.2600275039       -0.3110359553       -0.4498721023
vibration 17
           0.1007435715       -0.0700854143        0.0601749457
           0.3330958609       -0.0763440097       -0.0457398119
           0.1009808709       -0.0609457881        0.0060100913
          -0.0128167339       -0.0478542146       -0.0770621991
           0.1547659311       -0.2408804507       -0.0811728999
           0.0209416386        0.0027877784        0.0188245480
           0.0746934308        0.0443466156        0.0573398690
          -0.0313245049        0.0162962728       -0.0095158788
          -0.1347468986        0.1008854232       -0.0038089751
           0.3093786231       -0.3000683009        0.0304698479
          -0.1099449645        0.6143440709        0.3508883244
          -0.0181732514       -0.0046032980       -0.0227690517
           0.0327197514        0.0456652193        0.0829380316
vibration 18
          -0.0088324087        0.0097263561       -0.0028033877
           0.0766085638        0.0480153537       -0.0574521477
          -0.0665218119       -0.0107442395       -0.0060458650
           0.0022138563        0.0018650530        0.0072979461
           0.0523586302        0.0056751807       -0.0229436675
           0.0488951885        0.0520428665        0.1737009532
          -0.1648592371       -0.1736471091       -0.2884981095
           0.6377774105        0.0173293234        0.4304738225
           0.0025316770       -0.0088177005       -0.0023190900
           0.0187473995       -0.0098094071       -0.0095869574
           0.0046286355        0.0025050658        0.0044848749
          -0.0544258508       -0.0226761256       -0.1133044567
          -0.2335185144       -0.1546037988       -0.3417291790
vibration 19
          -0.0108522399       -0.0665195650       -0.0913877404
          -0.4050454272        0.2135962961        0.0158139216
           0.3335538057       -0.0219903668        0.1579998462
           0.0363769291        0.1590518151        0.1790014089
           0.0197252036        0.1741941175        0.1936275140
           0.0008444460       -0.0046288480        0.0048286698
           0.0001103196       -0.0055207793        0.0006999623
          -0.0279157437       -0.0042034368       -0.0082798447
          -0.0371257410       -0.0882140029       -0.1127152525
           0.3526722272       -0.4877035195       -0.0572088230
          -0.0155882322        0.2967250617        0.1881102624
          -0.0029139065        0.0013966459        0.0007808229
          -0.0094010682       -0.0082376497       -0.0377449511
vibration 20
          -0.0806456168        0.0113447393       -0.0815409801
          -0.3286907794        0.1526617432       -0.0227832431
          -0.0750472747        0.0107002137       -0.0462613551
           0.0775486528       -0.0381522946        0.0360252904
           0.6622151842       -0.6201173996       -0.0042878832
          -0.0125818371       -0.0066224239       -0.0016987647
           0.0127101588        0.0094211672       -0.0135239957
           0.0064015803        0.0124048894       -0.0084588959
          -0.0094240548        0.0511427440        0.0393066876
          -0.0318996101        0.0825077358        0.0373325943
          -0.0046623091        0.0251948558        0.0017209461
           0.0044936448        0.0009650315        0.0047038139
           0.0052815637       -0.0006391199       -0.0023575719
vibration 21
          -0.0010582418        0.0006700924       -0.0028960627
          -0.0132526774       -0.0205772031        0.0112844415
           0.0044014282       -0.0078753299        0.0233064288
           0.0030511985        0.0053970523        0.0036638524
          -0.0043318933        0.0063204417        0.0081397033
          -0.0824416967        0.0811494380       -0.0265484467
          -0.2703718934       -0.0736603820       -0.2818571834
           0.2768223362       -0.0288076523        0.1927799541
          -0.0008972461       -0.0036428014       -0.0024716218
           0.0106358899       -0.0098400927       -0.0040717395
           0.0004548116        0.0049037350        0.0020961905
           0.0339875567       -0.0726937850       -0.0170332094
           0.4265908266        0.2953810541        0.6599590442
vibration 22
          -0.0371825356        0.0091858114       -0.0297929171
           0.3653411482       -0.4594039606       -0.0420154914
           0.4874579201       -0.0191145776        0.4709145877
          -0.0942034670        0.0832471145       -0.0052188697
           0.2447020246       -0.2616213467       -0.0303295780
           0.0021391420        0.0008171031       -0.0055654890
           0.0038980657        0.0103827718        0.0614595430
           0.0273470080       -0.0318540026        0.0277935544
           0.0291530224       -0.0152611866        0.0096559845
           0.0120654140        0.0067717222       -0.0029357093
           0.0298763800       -0.1630414357       -0.1051076157
          -0.0016989389        0.0015229315       -0.0015391931
          -0.0098666439       -0.0045570475       -0.0063681393
vibration 23
           0.0008757057        0.0013930726        0.0001342025
          -0.0379078374        0.0154253280        0.0135399255
          -0.0245305611        0.0030231242       -0.0243397879
           0.0113396601       -0.0066221590        0.0014372944
          -0.0233229748        0.0228370772        0.0078080001
          -0.0493589120       -0.0017748976       -0.0789356157
           0.1043324858        0.2167464411        0.6926636462
           0.4412150020       -0.3483619904        0.3626263182
          -0.0034571550        0.0004428625       -0.0016777123
           0.0015898742        0.0016979616       -0.0034402905
          -0.0038701944        0.0195810926        0.0147558382
           0.0031395496        0.0098222423       -0.0059375337
          -0.0170359599       -0.0095931975       -0.0249086499
vibration 24
          -0.1832032389        0.1227084282       -0.0768802264
           0.2515559174       -0.4853616482       -0.0972393848
           0.1768334233        0.0720229707        0.3988773891
           0.2437427079       -0.1686976819        0.0395219281
          -0.2931849817        0.3824506595        0.0986861399
          -0.0133433076       -0.0142344357        0.0072485223
           0.0240969803        0.0042587363       -0.0338939911
          -0.0050006761        0.0370345149       -0.0251007479
          -0.0497785647        0.0291548389       -0.0131076264
          -0.0090098001       -0.0120628834        0.0021624128
          -0.0472247883        0.2667379234        0.1682210207
           0.0031310195        0.0038344831        0.0021860808
          -0.0180734207       -0.0139506962       -0.0057736301
vibration 25
          -0.0057485220        0.0062051721       -0.0005604184
          -0.0063712381        0.0069112198        0.0028838240
          -0.0328661465        0.0054637770       -0.0213787922
           0.0215070625       -0.0263989350        0.0025927728
          -0.0480285498        0.0495598828        0.0007782404
          -0.0014892553       -0.0010233455       -0.0003148007
           0.0013129461        0.0018960479        0.0026733681
           0.0037701013        0.0011909020        0.0008966843
          -0.0493233394        0.0745292683        0.0369785785
           0.5945772613       -0.3877632220       -0.0106359323
          -0.0036908799       -0.4646928316       -0.5128252033
           0.0005647277        0.0004016985        0.0002435652
          -0.0022523143       -0.0018483079       -0.0005016847
vibration 26
          -0.0003600483        0.0009377421        0.0006246793
          -0.0030976767       -0.0012594947        0.0017648810
           0.0051880181       -0.0092803573       -0.0055080448
           0.0003115458        0.0001564710        0.0001964518
          -0.0008139961       -0.0010573883       -0.0018961010
           0.0042441673       -0.0139833646       -0.0638863664
           0.2274058560       -0.3255530913        0.0342973839
          -0.2942324942        0.4790273629        0.7214918006
           0.0000049218        0.0000272805        0.0000066914
          -0.0005001802       -0.0002634177       -0.0000121809
           0.0005165130        0.0000272814        0.0001528096
           0.0008272197        0.0011690720       -0.0002235290
           0.0023799360       -0.0071050429        0.0040709997
vibration 27
          -0.0488229396        0.0226063417       -0.0399389178
           0.3321732545        0.2521561877        0.6870657282
           0.1896596203       -0.4960546974       -0.2292233068
           0.0002128776       -0.0064517740       -0.0068211640
           0.0562435626        0.0498343365        0.0955328315
          -0.0002840223       -0.0003033029        0.0003726930
          -0.0010367294        0.0026258370       -0.0010227839
           0.0020644298       -0.0016318041       -0.0053172432
           0.0001206034       -0.0001070196        0.0002045062
          -0.0033828951        0.0023760857       -0.0029373653
          -0.0003037132        0.0018485047        0.0014070861
           0.0001893919        0.0002071115        0.0002374639
           0.0020744631       -0.0016927874        0.0002115402
vibration 28
           0.0074308941        0.0067826222        0.0161940523
          -0.0767961795       -0.0556066746       -0.1602459433
           0.0198911343       -0.0494581747       -0.0221590531
          -0.0407589629       -0.0320235654       -0.0656660391
           0.4518743824        0.3916891340        0.7722295209
           0.0007091732        0.0003233110       -0.0004004989
          -0.0006213191       -0.0003733908        0.0000677555
          -0.0007821455        0.0005151491        0.0013815023
           0.0011140608        0.0014417145        0.0020421893
          -0.0077197179       -0.0074874526       -0.0188581211
          -0.0121953428       -0.0022889475       -0.0070764591
          -0.0000416691       -0.0000488488        0.0000142681
          -0.0000810437        0.0004439157       -0.0001173970
vibration 29
          -0.0008480908        0.0113142283        0.0098603143
          -0.0369132494       -0.0253897128       -0.0717024584
           0.0449694953       -0.1052929936       -0.0471947127
           0.0009947260        0.0010404489        0.0018681037
          -0.0118226007       -0.0099166984       -0.0192162909
           0.0527673513       -0.0786406562       -0.0133272871
          -0.4886450462        0.7566477080       -0.1329351141
          -0.1211166222        0.1715107540        0.2993599154
           0.0000169049       -0.0000445466       -0.0000437549
          -0.0004530022       -0.0006955376        0.0004354379
          -0.0001359230        0.0001250101        0.0002143118
          -0.0029359407        0.0041181069       -0.0007926180
           0.0304398027       -0.0624711315        0.0032637413
vibration 30
           0.0052026980       -0.0716053167       -0.0630044378
           0.2352584636        0.1560944222        0.4654528848
          -0.2775875658        0.6931631219        0.2992956659
          -0.0071233096       -0.0062540493       -0.0119291636
           0.0733402487        0.0600309884        0.1206064969
           0.0082978280       -0.0119638865       -0.0028464357
          -0.0719117722        0.1147823074       -0.0206594287
          -0.0234508443        0.0308917345        0.0546128938
          -0.0000373784        0.0008192617        0.0006477319
          -0.0036662973        0.0025976657       -0.0017840604
          -0.0045509724        0.0006308147       -0.0012263226
          -0.0004975891        0.0006131433        0.0000437700
           0.0050527647       -0.0097951140        0.0001209718
vibration 31
          -0.0003723005        0.0001347765       -0.0001349420
           0.0019333045        0.0007725935        0.0010696292
           0.0010095272       -0.0005905900       -0.0008325280
           0.0001455146       -0.0002732223        0.0000106745
          -0.0001153168        0.0000780573       -0.0001174471
           0.0029978587       -0.0079333962       -0.0035008234
          -0.0296060413        0.0500467028       -0.0040281001
          -0.0132384990        0.0165454503        0.0214954264
           0.0001467876       -0.0001427341       -0.0002482286
           0.0022546950        0.0027898604        0.0056759266
          -0.0053822129        0.0012502727       -0.0015304219
           0.0333800753       -0.0509714022        0.0105713776
          -0.5216556820        0.8361540310       -0.1428956052
vibration 32
          -0.0004344712        0.0004531079        0.0002602614
           0.0019043494       -0.0002675432       -0.0016083550
           0.0004875249       -0.0020663270        0.0002432477
          -0.0010449152        0.0015854159       -0.0008387039
           0.0042040284        0.0040913845        0.0072419561
           0.0002031119        0.0002012385        0.0001376955
           0.0003944254       -0.0007920943        0.0001866238
          -0.0006161435       -0.0004654412        0.0004673685
           0.0213573198       -0.0369675697       -0.0313164899
           0.2930030938        0.3431604869        0.6318865613
          -0.5788103457        0.1443694072       -0.1956173214
          -0.0004343508        0.0003648716       -0.0002325504
           0.0047768300       -0.0068487535        0.0012608417
vibration 33
           0.0005339805       -0.0002664434        0.0003737971
           0.0015289869       -0.0014227511       -0.0001188361
          -0.0004880268        0.0009226486        0.0000227749
          -0.0017562068       -0.0015044056       -0.0025869342
           0.0098950438        0.0111593122        0.0176540066
           0.0000414585       -0.0000652898        0.0000000143
          -0.0003633919        0.0007468698       -0.0001593797
          -0.0001206764        0.0001556920        0.0001276430
          -0.0671212676       -0.0058353049       -0.0518090114
           0.2131971183        0.2810711780        0.5119418488
           0.7229811616       -0.1897524266        0.2167426535
           0.0000102683       -0.0000035909        0.0000011781
          -0.0001275776        0.0001168268       -0.0000255834
