
    -----------------------------------------------------------------------
          Psi4: An Open-Source Ab Initio Electronic Structure Package
                               Psi4 1.2.1 release

                         Git: Rev {HEAD} 406f4de 


    R. M. Parrish, L. A. Burns, D. G. A. Smith, A. C. Simmonett,
    A. E. DePrince III, E. G. Hohenstein, U. Bozkaya, A. Yu. Sokolov,
    R. Di Remigio, R. M. Richard, J. F. Gonthier, A. M. James,
    H. R. McAlexander, A. Kumar, M. Saitow, X. Wang, B. P. Pritchard,
    P. Verma, H. F. Schaefer III, K. Patkowski, R. A. King, E. F. Valeev,
    F. A. Evangelista, J. M. Turney, T. D. Crawford, and C. D. Sherrill,
    J. Chem. Theory Comput. 13(7) pp 3185--3197 (2017).
    (doi: 10.1021/acs.jctc.7b00174)


                         Additional Contributions by
    P. Kraus, H. Kruse, M. H. Lechner, M. C. Schieber, and R. A. Shaw

    -----------------------------------------------------------------------


    Psi4 started on: Monday, 08 April 2019 02:15PM

    Process ID: 12365
    Host:       localhost.localdomain
    PSIDATADIR: /root/psi4conda/share/psi4
    Memory:     500.0 MiB
    Threads:    1
    
  ==> Input File <==

--------------------------------------------------------------------------

molecule {
0 1
C -0.0629433443 -0.7572010666 0.0801593910

O -1.0888461738 -0.7865965296 -0.6641124020

H 0.7179356210 -0.7116726551 2.1110504297

H -1.0489257789 -0.4642333971 1.9505767764

H -0.3494029664 -2.0702085926 1.6926353763

H 0.9207750752 -1.0501608516 -0.3399096330

C -0.1816294332 -0.9978337405 1.5638103934
--
0 1
H 1.0283619976 2.4618767163 -1.1042903334

C 1.2073827499 1.4252054256 -0.8320118287

H 1.3251365420 0.8162068857 -1.7326963138

H 2.1048908840 1.3620664280 -0.2173464493

O 0.1138142324 0.9632942459 -0.0547013537

H -0.6883202983 0.7790264219 -0.6197681977 
symmetry c1
no_reorient
no_com
}

set{
  basis 6-311++G(d,p)
  freeze_core True
}

set_num_threads(32)
energy('fisapt0')
--------------------------------------------------------------------------
  Threads set to 32 by Python driver.

*** tstart() called on localhost.localdomain
*** at Mon Apr  8 14:15:13 2019

   => Loading Basis Set <=

    Name: 6-311++G(D,P)
    Role: ORBITAL
    Keyword: BASIS
    atoms 1, 7, 9           entry C          line   119 file /root/psi4conda/share/psi4/basis/6-311ppg_d_p_.gbs 
    atoms 2, 12             entry O          line   161 file /root/psi4conda/share/psi4/basis/6-311ppg_d_p_.gbs 
    atoms 3-6, 8, 10-11, 13 entry H          line    42 file /root/psi4conda/share/psi4/basis/6-311ppg_d_p_.gbs 


         ---------------------------------------------------------
                                   SCF
            by Justin Turney, Rob Parrish, Andy Simmonett
                             and Daniel Smith
                              RHF Reference
                       32 Threads,    500 MiB Core
         ---------------------------------------------------------

  ==> Geometry <==

    Molecular point group: c1
    Full point group: C1

    Geometry (in Angstrom), charge = 0, multiplicity = 1:

       Center              X                  Y                   Z               Mass       
    ------------   -----------------  -----------------  -----------------  -----------------
         C           -0.062943344300    -0.757201066600     0.080159391000    12.000000000000
         O           -1.088846173800    -0.786596529600    -0.664112402000    15.994914619560
         H            0.717935621000    -0.711672655100     2.111050429700     1.007825032070
         H           -1.048925778900    -0.464233397100     1.950576776400     1.007825032070
         H           -0.349402966400    -2.070208592600     1.692635376300     1.007825032070
         H            0.920775075200    -1.050160851600    -0.339909633000     1.007825032070
         C           -0.181629433200    -0.997833740500     1.563810393400    12.000000000000
         H            1.028361997600     2.461876716300    -1.104290333400     1.007825032070
         C            1.207382749900     1.425205425600    -0.832011828700    12.000000000000
         H            1.325136542000     0.816206885700    -1.732696313800     1.007825032070
         H            2.104890884000     1.362066428000    -0.217346449300     1.007825032070
         O            0.113814232400     0.963294245900    -0.054701353700    15.994914619560
         H           -0.688320298300     0.779026421900    -0.619768197700     1.007825032070

  Running in c1 symmetry.

  Rotational constants: A =      0.28058  B =      0.11690  C =      0.09412 [cm^-1]
  Rotational constants: A =   8411.58597  B =   3504.45230  C =   2821.51203 [MHz]
  Nuclear repulsion =  195.492133950622957

  Charge       = 0
  Multiplicity = 1
  Electrons    = 42
  Nalpha       = 21
  Nbeta        = 21

  ==> Algorithm <==

  SCF Algorithm Type is DF.
  DIIS enabled.
  MOM disabled.
  Fractional occupation disabled.
  Guess Type is SAD.
  Energy threshold   = 1.00e-08
  Density threshold  = 1.00e-08
  Integral threshold = 0.00e+00

  ==> Primary Basis <==

  Basis Set: 6-311++G(D,P)
    Blend: 6-311++G(D,P)
    Number of shells: 90
    Number of basis function: 166
    Number of Cartesian functions: 171
    Spherical Harmonics?: true
    Max angular momentum: 2

   => Loading Basis Set <=

    Name: (6-311++G(D,P) AUX)
    Role: JKFIT
    Keyword: DF_BASIS_SCF
    atoms 1, 7, 9           entry C          line   162 file /root/psi4conda/share/psi4/basis/aug-cc-pvtz-jkfit.gbs 
    atoms 2, 12             entry O          line   286 file /root/psi4conda/share/psi4/basis/aug-cc-pvtz-jkfit.gbs 
    atoms 3-6, 8, 10-11, 13 entry H          line    70 file /root/psi4conda/share/psi4/basis/aug-cc-pvtz-jkfit.gbs 

  ==> Pre-Iterations <==

   -------------------------------------------------------
    Irrep   Nso     Nmo     Nalpha   Nbeta   Ndocc  Nsocc
   -------------------------------------------------------
     A        166     166       0       0       0       0
   -------------------------------------------------------
    Total     166     166      21      21      21       0
   -------------------------------------------------------

  ==> Integral Setup <==

  DFHelper Memory: AOs need 0.238 [GiB]; user supplied 0.366 [GiB]. Using in-core AOs.

  ==> MemDFJK: Density-Fitted J/K Matrices <==

    J tasked:                   Yes
    K tasked:                   Yes
    wK tasked:                   No
    OpenMP threads:              32
    Memory (MB):                375
    Algorithm:                 Core
    Schwarz Cutoff:           1E-12
    Mask sparsity (%):       2.0105
    Fitting Condition:        1E-12

   => Auxiliary Basis Set <=

  Basis Set: (6-311++G(D,P) AUX)
    Blend: AUG-CC-PVTZ-JKFIT
    Number of shells: 262
    Number of basis function: 888
    Number of Cartesian functions: 1095
    Spherical Harmonics?: true
    Max angular momentum: 4

  Minimum eigenvalue in the overlap matrix is 6.2313283895E-05.
  Using Symmetric Orthogonalization.

  SCF Guess: Superposition of Atomic Densities via on-the-fly atomic UHF.

  ==> Iterations <==

                           Total Energy        Delta E     RMS |[F,P]|

   @DF-RHF iter   0:  -269.70407901380440   -2.69704e+02   1.00091e-01 
   @DF-RHF iter   1:  -267.78830974888967    1.91577e+00   1.33360e-02 
   @DF-RHF iter   2:  -267.92198463504582   -1.33675e-01   1.05939e-02 DIIS
   @DF-RHF iter   3:  -267.97163435575828   -4.96497e-02   2.15478e-03 DIIS
   @DF-RHF iter   4:  -267.97783112479152   -6.19677e-03   7.74926e-04 DIIS
   @DF-RHF iter   5:  -267.97847887847439   -6.47754e-04   3.51245e-04 DIIS
   @DF-RHF iter   6:  -267.97859223206973   -1.13354e-04   9.46871e-05 DIIS
   @DF-RHF iter   7:  -267.97860530077230   -1.30687e-05   2.86845e-05 DIIS
   @DF-RHF iter   8:  -267.97860654932003   -1.24855e-06   9.09475e-06 DIIS
   @DF-RHF iter   9:  -267.97860667557137   -1.26251e-07   2.08061e-06 DIIS
   @DF-RHF iter  10:  -267.97860668625810   -1.06867e-08   4.38521e-07 DIIS
   @DF-RHF iter  11:  -267.97860668680960   -5.51495e-10   1.32958e-07 DIIS
   @DF-RHF iter  12:  -267.97860668685740   -4.78053e-11   5.38588e-08 DIIS
   @DF-RHF iter  13:  -267.97860668686576   -8.35598e-12   2.38121e-08 DIIS
   @DF-RHF iter  14:  -267.97860668686673   -9.66338e-13   8.77324e-09 DIIS

  ==> Post-Iterations <==

    Orbital Energies [Eh]
    ---------------------

    Doubly Occupied:                                                      

       1A    -20.613483     2A    -20.480823     3A    -11.346431  
       4A    -11.305029     5A    -11.223493     6A     -1.445500  
       7A     -1.315532     8A     -1.008276     9A     -0.970081  
      10A     -0.811213    11A     -0.747141    12A     -0.677114  
      13A     -0.665454    14A     -0.623149    15A     -0.580273  
      16A     -0.575062    17A     -0.541918    18A     -0.533379  
      19A     -0.517445    20A     -0.414270    21A     -0.386330  

    Virtual:                                                              

      22A      0.034049    23A      0.050885    24A      0.057489  
      25A      0.066198    26A      0.082852    27A      0.083384  
      28A      0.090543    29A      0.106398    30A      0.122126  
      31A      0.143398    32A      0.156768    33A      0.160941  
      34A      0.167724    35A      0.173205    36A      0.175052  
      37A      0.191052    38A      0.199003    39A      0.205539  
      40A      0.215060    41A      0.222416    42A      0.243912  
      43A      0.271494    44A      0.291023    45A      0.300243  
      46A      0.313242    47A      0.324031    48A      0.336726  
      49A      0.342256    50A      0.364118    51A      0.386085  
      52A      0.387223    53A      0.412751    54A      0.424324  
      55A      0.432471    56A      0.432717    57A      0.450271  
      58A      0.456815    59A      0.482748    60A      0.547501  
      61A      0.558416    62A      0.579327    63A      0.599938  
      64A      0.622660    65A      0.646523    66A      0.697703  
      67A      0.718679    68A      0.751696    69A      0.774520  
      70A      0.815460    71A      0.838146    72A      0.850944  
      73A      0.865296    74A      0.879041    75A      0.889146  
      76A      0.908008    77A      0.925026    78A      0.950388  
      79A      1.041140    80A      1.118635    81A      1.157081  
      82A      1.195702    83A      1.259743    84A      1.278904  
      85A      1.309563    86A      1.408297    87A      1.426638  
      88A      1.461655    89A      1.487867    90A      1.512691  
      91A      1.558084    92A      1.597967    93A      1.676690  
      94A      1.685145    95A      1.700119    96A      1.720416  
      97A      1.758022    98A      1.787760    99A      1.797435  
     100A      1.819367   101A      1.839110   102A      1.868473  
     103A      1.898375   104A      1.904788   105A      1.971022  
     106A      1.985792   107A      2.001906   108A      2.014915  
     109A      2.083106   110A      2.134152   111A      2.175981  
     112A      2.205561   113A      2.250884   114A      2.283979  
     115A      2.364163   116A      2.373179   117A      2.425436  
     118A      2.498514   119A      2.509804   120A      2.610938  
     121A      2.696896   122A      2.754490   123A      2.784298  
     124A      2.811960   125A      2.829488   126A      2.861025  
     127A      2.867166   128A      2.882307   129A      2.896536  
     130A      2.916284   131A      2.941657   132A      2.964599  
     133A      3.027523   134A      3.086869   135A      3.178704  
     136A      3.208834   137A      3.277844   138A      3.308528  
     139A      3.363652   140A      3.431915   141A      3.540762  
     142A      3.579145   143A      3.616043   144A      3.696372  
     145A      3.853838   146A      3.906651   147A      4.114501  
     148A      4.134001   149A      4.196474   150A      4.207633  
     151A      4.246372   152A      4.319406   153A      4.387811  
     154A      4.482369   155A      4.652283   156A      5.651603  
     157A      5.723329   158A      5.772177   159A      5.914171  
     160A      6.170722   161A      6.319918   162A     24.972560  
     163A     25.055039   164A     25.130509   165A     51.600814  
     166A     51.760176  

    Final Occupation by Irrep:
              A 
    DOCC [    21 ]

  Energy converged.

  @DF-RHF Final Energy:  -267.97860668686673

   => Energetics <=

    Nuclear Repulsion Energy =            195.4921339506229572
    One-Electron Energy =                -753.3786887301417892
    Two-Electron Energy =                 289.9079480926521342
    Total Energy =                       -267.9786066868667262



Properties will be evaluated at   0.000000,   0.000000,   0.000000 [a0]

Properties computed using the SCF density matrix

  Nuclear Dipole Moment: [e a0]
     X:     3.7550      Y:     1.0535      Z:     1.6280

  Electronic Dipole Moment: [e a0]
     X:    -2.2979      Y:    -0.2578      Z:    -1.3502

  Dipole Moment: [e a0]
     X:     1.4570      Y:     0.7957      Z:     0.2777     Total:     1.6832

  Dipole Moment: [D]
     X:     3.7034      Y:     2.0224      Z:     0.7060     Total:     4.2783


*** tstop() called on localhost.localdomain at Mon Apr  8 14:15:16 2019
Module time:
	user time   =      57.29 seconds =       0.95 minutes
	system time =       3.78 seconds =       0.06 minutes
	total time  =          3 seconds =       0.05 minutes
Total time:
	user time   =      57.29 seconds =       0.95 minutes
	system time =       3.78 seconds =       0.06 minutes
	total time  =          3 seconds =       0.05 minutes
  Constructing Basis Sets for FISAPT...

   => Loading Basis Set <=

    Name: (6-311++G(D,P) AUX)
    Role: JKFIT
    Keyword: DF_BASIS_SCF
    atoms 1, 7, 9           entry C          line   162 file /root/psi4conda/share/psi4/basis/aug-cc-pvtz-jkfit.gbs 
    atoms 2, 12             entry O          line   286 file /root/psi4conda/share/psi4/basis/aug-cc-pvtz-jkfit.gbs 
    atoms 3-6, 8, 10-11, 13 entry H          line    70 file /root/psi4conda/share/psi4/basis/aug-cc-pvtz-jkfit.gbs 

   => Loading Basis Set <=

    Name: (6-311++G(D,P) AUX)
    Role: RIFIT
    Keyword: DF_BASIS_SAPT
    atoms 1, 7, 9           entry C          line   148 file /root/psi4conda/share/psi4/basis/aug-cc-pvtz-ri.gbs 
    atoms 2, 12             entry O          line   264 file /root/psi4conda/share/psi4/basis/aug-cc-pvtz-ri.gbs 
    atoms 3-6, 8, 10-11, 13 entry H          line    30 file /root/psi4conda/share/psi4/basis/aug-cc-pvtz-ri.gbs 

   => Loading Basis Set <=

    Name: CC-PVTZ-MINAO
    Role: ORBITAL
    Keyword: BASIS
    atoms 1, 7, 9           entry C          line   119 file /root/psi4conda/share/psi4/basis/cc-pvtz-minao.gbs 
    atoms 2, 12             entry O          line   179 file /root/psi4conda/share/psi4/basis/cc-pvtz-minao.gbs 
    atoms 3-6, 8, 10-11, 13 entry H          line    20 file /root/psi4conda/share/psi4/basis/cc-pvtz-minao.gbs 

	 --------------------------------------------
	                    FISAPT0                  
	                  Rob Parrish                
	 --------------------------------------------

    Do F-SAPT =         Yes
    Do Plot   =          No
    Memory    =       0.055 [GD]

  ==> Localization (IBO) <==

  ==> IBO Localizer 2 <==

    MinAO Basis = CC-PVTZ-MINAO
    Use Ghosts  =       FALSE
    Use Stars   =       FALSE
    Condition   =   1.000E-07
    Power       =           4
    Convergence =   1.000E-12
    Maxiter     =         200

    @IBO Iter:                   Metric       Gradient
    @IBO    1:   1.5556645708295047E+00   1.641072E+00
    @IBO    2:   1.7487111467834273E+00   1.224636E+00
    @IBO    3:   1.7920111244641779E+00   3.658789E-01
    @IBO    4:   1.7947373161347537E+00   5.833748E-02
    @IBO    5:   1.7947683653467019E+00   1.063981E-03
    @IBO    6:   1.7947683722646384E+00   3.768448E-06
    @IBO    7:   1.7947683722648073E+00   1.201755E-07
    @IBO    8:   1.7947683722648071E+00   3.594165E-09
    @IBO    9:   1.7947683722648076E+00   1.062719E-10
    @IBO   10:   1.7947683722648076E+00   3.144305E-12
    @IBO   11:   1.7947683722648073E+00   9.351434E-14

    IBO Localizer 2 converged.

  ==> Partitioning <==

   => Atomic Partitioning <= 

    Monomer A:   7 atoms
    Monomer B:   6 atoms
    Monomer C:   0 atoms

   => Link Bond Identification <=

    Link Bond Selection = AUTOMATIC

    Charge Completeness = 0.800

    Total Link Bonds = 0

   => Link Bond Assignment <=

    Link Bond Assignment      = C

   => Partition Summary <=

    Monomer A:  0 charge,  24 protons,  24 electrons,  12 docc
    Monomer B:  0 charge,  18 protons,  18 electrons,   9 docc
    Monomer C:  0 charge,   0 protons,   0 electrons,   0 docc

  ==> Overlap Integrals <==

  ==> Kinetic Integrals <==

  ==> Nuclear Integrals <==

    Nuclear Repulsion Tot:   1.9549213395062293E+02 [Eh]

  ==> Coulomb Integrals <==

  DFHelper Memory: AOs need 0.238 [GiB]; user supplied 0.439 [GiB]. Using in-core AOs.

  ==> MemDFJK: Density-Fitted J/K Matrices <==

    J tasked:                   Yes
    K tasked:                   Yes
    wK tasked:                   No
    OpenMP threads:              32
    Memory (MB):                450
    Algorithm:                 Core
    Schwarz Cutoff:           1E-12
    Mask sparsity (%):       2.0105
    Fitting Condition:        1E-12

   => Auxiliary Basis Set <=

  Basis Set: (6-311++G(D,P) AUX)
    Blend: AUG-CC-PVTZ-JKFIT
    Number of shells: 262
    Number of basis function: 888
    Number of Cartesian functions: 1095
    Spherical Harmonics?: true
    Max angular momentum: 4

  ==> Relaxed SCF Equations <==

  ==> SCF A: <==

    Maxiter =         100
    E Tol   =   1.000E-08
    D Tol   =   1.000E-08

    Max DIIS Vectors = 10

    Iter   N:                        E          dE         |D|
    Iter   1:  -1.5271159957404927E+02  -1.527E+02   4.364E-02 
    Iter   2:  -1.5292301274641423E+02  -2.114E-01   4.332E-03 DIIS
    Iter   3:  -1.5293443860865955E+02  -1.143E-02   2.452E-03 DIIS
    Iter   4:  -1.5293819897210807E+02  -3.760E-03   1.204E-03 DIIS
    Iter   5:  -1.5293971926345415E+02  -1.520E-03   3.552E-04 DIIS
    Iter   6:  -1.5294013514714169E+02  -4.159E-04   1.867E-04 DIIS
    Iter   7:  -1.5294019330402855E+02  -5.816E-05   2.345E-05 DIIS
    Iter   8:  -1.5294019412802925E+02  -8.240E-07   5.250E-06 DIIS
    Iter   9:  -1.5294019415805755E+02  -3.003E-08   1.543E-06 DIIS
    Iter  10:  -1.5294019416266315E+02  -4.606E-09   7.621E-07 DIIS
    Iter  11:  -1.5294019416406601E+02  -1.403E-09   1.816E-07 DIIS
    Iter  12:  -1.5294019416431928E+02  -2.533E-10   7.228E-08 DIIS
    Iter  13:  -1.5294019416434796E+02  -2.868E-11   3.410E-08 DIIS
    Iter  14:  -1.5294019416435654E+02  -8.583E-12   1.746E-08 DIIS
    Iter  15:  -1.5294019416435791E+02  -1.364E-12   8.457E-09 DIIS

    FISAPTSCF Converged.

    Final SCF Energy:  -1.5294019416435791E+02 [Eh]

   => Occupied Orbital Energies <=

       1  -20.566164     2  -11.351466     3  -11.248436  
       4   -1.363457     5   -1.025299     6   -0.808912  
       7   -0.667145     8   -0.612954     9   -0.606852  
      10   -0.560656    11   -0.485765    12   -0.432638  

   => Virtual Orbital Energies <=

      13    0.029684    14    0.046882    15    0.054333  
      16    0.063575    17    0.075848    18    0.085807  
      19    0.086954    20    0.092293    21    0.115540  
      22    0.125696    23    0.136961    24    0.148358  
      25    0.151529    26    0.166579    27    0.171642  
      28    0.178586    29    0.181608    30    0.188426  
      31    0.208549    32    0.210363    33    0.222725  
      34    0.262112    35    0.287731    36    0.296365  
      37    0.304747    38    0.316739    39    0.331318  
      40    0.341416    41    0.355443    42    0.366836  
      43    0.391697    44    0.406151    45    0.412375  
      46    0.433042    47    0.447096    48    0.453532  
      49    0.465698    50    0.511861    51    0.541138  
      52    0.568645    53    0.570167    54    0.586512  
      55    0.597111    56    0.617887    57    0.667725  
      58    0.692196    59    0.728519    60    0.811743  
      61    0.839411    62    0.847744    63    0.862299  
      64    0.884611    65    0.891121    66    0.904161  
      67    0.947714    68    0.958798    69    0.990997  
      70    1.014546    71    1.042192    72    1.092679  
      73    1.188786    74    1.225113    75    1.248326  
      76    1.331984    77    1.396423    78    1.435062  
      79    1.463184    80    1.490590    81    1.524483  
      82    1.561428    83    1.667717    84    1.696377  
      85    1.724198    86    1.774771    87    1.787167  
      88    1.803713    89    1.814445    90    1.832036  
      91    1.854833    92    1.883458    93    1.894848  
      94    1.931486    95    2.021528    96    2.070333  
      97    2.089578    98    2.098213    99    2.167908  
     100    2.211050   101    2.220641   102    2.300390  
     103    2.318925   104    2.362000   105    2.370983  
     106    2.445628   107    2.483159   108    2.540154  
     109    2.629522   110    2.650678   111    2.667030  
     112    2.707774   113    2.790940   114    2.801249  
     115    2.844722   116    2.860302   117    2.868397  
     118    2.902889   119    2.938802   120    3.000989  
     121    3.029546   122    3.045682   123    3.050717  
     124    3.142753   125    3.205223   126    3.284634  
     127    3.360563   128    3.377627   129    3.421374  
     130    3.451499   131    3.503629   132    3.537473  
     133    3.650232   134    3.722382   135    3.802580  
     136    3.828463   137    3.904217   138    4.179870  
     139    4.216857   140    4.336706   141    4.422186  
     142    4.530110   143    4.660972   144    4.763322  
     145    4.859903   146    4.910767   147    4.964695  
     148    5.191212   149    5.477354   150    5.671383  
     151    5.717885   152    5.969483   153    6.268272  
     154    7.767825   155    7.792422   156    8.007012  
     157    9.964621   158   13.578469   159   13.789299  
     160   14.043608   161   18.519960   162   24.967463  
     163   25.105585   164   51.671041   165   69.958689  
     166  139.760444  

  ==> SCF B: <==

    Maxiter =         100
    E Tol   =   1.000E-08
    D Tol   =   1.000E-08

    Max DIIS Vectors = 10

    Iter   N:                        E          dE         |D|
    Iter   1:  -1.1469847649460148E+02  -1.147E+02   4.617E-02 
    Iter   2:  -1.1506600901529518E+02  -3.675E-01   3.035E-03 DIIS
    Iter   3:  -1.1507636882868698E+02  -1.036E-02   5.485E-04 DIIS
    Iter   4:  -1.1507720148340641E+02  -8.327E-04   3.451E-04 DIIS
    Iter   5:  -1.1507733491065665E+02  -1.334E-04   1.726E-04 DIIS
    Iter   6:  -1.1507736923769548E+02  -3.433E-05   6.428E-05 DIIS
    Iter   7:  -1.1507737477903699E+02  -5.541E-06   1.620E-05 DIIS
    Iter   8:  -1.1507737513638810E+02  -3.574E-07   4.500E-06 DIIS
    Iter   9:  -1.1507737515835500E+02  -2.197E-08   8.723E-07 DIIS
    Iter  10:  -1.1507737515946204E+02  -1.107E-09   1.403E-07 DIIS
    Iter  11:  -1.1507737515949232E+02  -3.028E-11   2.505E-08 DIIS
    Iter  12:  -1.1507737515949341E+02  -1.094E-12   5.752E-09 DIIS

    FISAPTSCF Converged.

    Final SCF Energy:  -1.1507737515949341E+02 [Eh]

   => Occupied Orbital Energies <=

       1  -20.557539     2  -11.272584     3   -1.347803  
       4   -0.924228     5   -0.682802     6   -0.622367  
       7   -0.596118     8   -0.497363     9   -0.447838  

   => Virtual Orbital Energies <=

      10    0.034743    11    0.049938    12    0.058367  
      13    0.062688    14    0.080635    15    0.085786  
      16    0.092746    17    0.102634    18    0.116400  
      19    0.135765    20    0.144402    21    0.161067  
      22    0.163237    23    0.171260    24    0.178097  
      25    0.185820    26    0.193499    27    0.199025  
      28    0.208919    29    0.213735    30    0.271494  
      31    0.281025    32    0.297695    33    0.309386  
      34    0.321782    35    0.327536    36    0.331173  
      37    0.347472    38    0.360775    39    0.367327  
      40    0.380096    41    0.398657    42    0.410797  
      43    0.419117    44    0.444715    45    0.456282  
      46    0.501726    47    0.553467    48    0.577977  
      49    0.590451    50    0.609968    51    0.620081  
      52    0.638739    53    0.650706    54    0.688184  
      55    0.716781    56    0.729282    57    0.749661  
      58    0.802248    59    0.856957    60    0.863439  
      61    0.875334    62    0.909955    63    0.968049  
      64    0.982738    65    1.012637    66    1.041038  
      67    1.098859    68    1.146780    69    1.167416  
      70    1.231198    71    1.246875    72    1.324655  
      73    1.378550    74    1.436860    75    1.546910  
      76    1.556121    77    1.595638    78    1.654719  
      79    1.705858    80    1.711235    81    1.732065  
      82    1.755181    83    1.783561    84    1.817432  
      85    1.821531    86    1.849727    87    1.894982  
      88    1.927101    89    1.972473    90    1.986501  
      91    2.035827    92    2.049772    93    2.084264  
      94    2.113708    95    2.155282    96    2.247116  
      97    2.262266    98    2.329500    99    2.345666  
     100    2.362159   101    2.408989   102    2.435262  
     103    2.490659   104    2.504185   105    2.531366  
     106    2.573536   107    2.667990   108    2.736064  
     109    2.768493   110    2.787160   111    2.823811  
     112    2.843476   113    2.859524   114    2.906803  
     115    2.922004   116    2.938294   117    2.985321  
     118    3.159857   119    3.170254   120    3.200667  
     121    3.235071   122    3.273315   123    3.322229  
     124    3.361186   125    3.464342   126    3.483707  
     127    3.506204   128    3.547425   129    3.572922  
     130    3.640734   131    3.823118   132    3.874256  
     133    4.051948   134    4.165951   135    4.230819  
     136    4.361009   137    4.501319   138    4.576263  
     139    4.613991   140    4.685946   141    4.732861  
     142    4.870301   143    4.893288   144    5.098472  
     145    5.237181   146    5.719294   147    5.854140  
     148    5.981200   149    6.227235   150    7.534209  
     151    7.556991   152    7.761564   153    7.847970  
     154    7.966398   155    8.328688   156   10.008304  
     157   10.041728   158   13.541817   159   13.586841  
     160   14.105198   161   18.598981   162   25.088072  
     163   51.662512   164   69.944628   165   70.014105  
     166  139.783147  

  ==> Frozen Core <==


    ------------------
    Range      A     B
    ------------------
    nbf      166   166
    nmo      166   166
    nocc      12     9
    nvir     154   157
    nfocc      3     2
    naocc      9     7
    navir    154   157
    nfvir      0     0
    ------------------

  ==> Unification <==

  ==> dHF <==

    E ABC(HF) =  -2.6797860668686673E+02 [Eh]
    E AC(0)   =  -1.5294019416435793E+02 [Eh]
    E BC(0)   =  -1.1507737515949341E+02 [Eh]
    E A(0)    =  -1.5294019416435793E+02 [Eh]
    E B(0)    =  -1.1507737515949341E+02 [Eh]
    E AC(HF)  =  -1.5271159957404927E+02 [Eh]
    E BC(HF)  =  -1.1469847649460149E+02 [Eh]
    E AB(HF)  =  -2.6797860668686690E+02 [Eh]
    E A(HF)   =  -1.5271159957404927E+02 [Eh]
    E B(HF)   =  -1.1469847649460149E+02 [Eh]
    E C       =   0.0000000000000000E+00 [Eh]
    E HF      =   3.8962636984621213E-02 [Eh]

  ==> Electrostatics <==

    Elst10,r            =    -0.141125476160 [Eh]

  ==> Exchange <==

    Exch10(S^2)         =     0.246334466259 [Eh]
    Exch10              =     0.270327051579 [Eh]

  ==> Induction <==

    Ind20,u (A<-B)      =    -0.071082167872 [Eh]
    Ind20,u (B<-A)      =    -0.091915696072 [Eh]
    Ind20,u             =    -0.162997863944 [Eh]
    Exch-Ind20,u (A<-B) =     0.052200431603 [Eh]
    Exch-Ind20,u (B<-A) =     0.061448506211 [Eh]
    Exch-Ind20,u        =     0.113648937814 [Eh]

  ==> CPHF Iterations <==

    Maxiter     =         100
    Convergence =   1.000E-08

    -----------------------------------------
    Iter   Monomer A    Monomer B    Time [s]
    -----------------------------------------
    1      1.722E-01    2.175E-01           0
    2      5.107E-02    7.600E-02           0
    3      2.176E-02    2.724E-02           0
    4      1.174E-02    6.443E-03           0
    5      5.050E-03    2.181E-03           0
    6      8.210E-04    6.655E-04           0
    7      3.057E-04    2.169E-04           0
    8      1.196E-04    4.221E-05           0
    9      4.478E-05    8.316E-06           1
    10     1.643E-05    1.522E-06           1
    11     4.133E-06    4.205E-07           1
    12     1.439E-06    8.129E-08           1
    13     7.458E-07    9.959E-09*          1
    14     1.237E-07    9.959E-09*          1
    15     2.789E-08    9.959E-09*          1
    16     6.660E-09*   9.959E-09*          1
    -----------------------------------------

    Ind20,r (A<-B)      =    -0.087849975754 [Eh]
    Ind20,r (B<-A)      =    -0.119947232755 [Eh]
    Ind20,r             =    -0.207797208509 [Eh]
    Exch-Ind20,r (A<-B) =     0.066571903119 [Eh]
    Exch-Ind20,r (B<-A) =     0.079968010126 [Eh]
    Exch-Ind20,r        =     0.146539913245 [Eh]

  ==> F-SAPT Localization (IBO) <==

  Local Orbitals for Monomer A:

  ==> IBO Localizer 2 <==

    MinAO Basis = CC-PVTZ-MINAO
    Use Ghosts  =       FALSE
    Use Stars   =       FALSE
    Condition   =   1.000E-07
    Power       =           4
    Convergence =   1.000E-12
    Maxiter     =         200

    @IBO Iter:                   Metric       Gradient
    @IBO    1:   1.3884589088550141E+00   1.138433E+00
    @IBO    2:   1.5235339259594940E+00   6.445488E-01
    @IBO    3:   1.5485282749649969E+00   2.645322E-01
    @IBO    4:   1.5498491450062688E+00   2.729571E-03
    @IBO    5:   1.5498492714607068E+00   1.281255E-05
    @IBO    6:   1.5498492714699286E+00   3.462542E-07
    @IBO    7:   1.5498492714699310E+00   1.446229E-09
    @IBO    8:   1.5498492714699310E+00   3.382697E-11
    @IBO    9:   1.5498492714699308E+00   6.185284E-13

    IBO Localizer 2 converged.

  Local Orbitals for Monomer B:

  ==> IBO Localizer 2 <==

    MinAO Basis = CC-PVTZ-MINAO
    Use Ghosts  =       FALSE
    Use Stars   =       FALSE
    Condition   =   1.000E-07
    Power       =           4
    Convergence =   1.000E-12
    Maxiter     =         200

    @IBO Iter:                   Metric       Gradient
    @IBO    1:   1.2773596727788954E+00   8.217043E-01
    @IBO    2:   1.4192297564984162E+00   5.737384E-01
    @IBO    3:   1.4498208752579465E+00   1.874742E-01
    @IBO    4:   1.4522594804767326E+00   3.875090E-02
    @IBO    5:   1.4522887481026849E+00   3.159190E-05
    @IBO    6:   1.4522887481819022E+00   1.091351E-07
    @IBO    7:   1.4522887481819027E+00   2.007874E-10
    @IBO    8:   1.4522887481819029E+00   1.038977E-12
    @IBO    9:   1.4522887481819029E+00   5.706848E-15

    IBO Localizer 2 converged.

  ==> F-SAPT Electrostatics <==

  DFHelper Memory: AOs need 0.243 [GiB]; user supplied 0.439 [GiB]. Using in-core AOs.

  ==> DFHelper <==
    nao:                             166
    naux:                            888
    Schwarz cutoff:                1E-12
    Mask sparsity (%):                 2
    DFH Avail. Memory [GiB]:       0.439
    OpenMP threads:                   32
    Algorithm:                DIRECT_iaQ
    AO_core:                        True
    MO_core:                       False
    Hold Metric:                   False
    Metric Power:                 -5E-01
    Fitting condition:             1E-12
    Q Shell Max:                       9


    Elst10,r            =    -0.141125476139 [Eh]

  ==> F-SAPT Exchange <==

  DFHelper Memory: AOs need 0.243 [GiB]; user supplied 0.439 [GiB]. Using in-core AOs.

  ==> DFHelper <==
    nao:                             166
    naux:                            888
    Schwarz cutoff:                1E-12
    Mask sparsity (%):                 2
    DFH Avail. Memory [GiB]:       0.439
    OpenMP threads:                   32
    Algorithm:                DIRECT_iaQ
    AO_core:                        True
    MO_core:                       False
    Hold Metric:                   False
    Metric Power:                 -5E-01
    Fitting condition:             1E-12
    Q Shell Max:                       9


    Exch10(S^2)         =     0.246334466259 [Eh]

    Scaling F-SAPT Exch10(S^2) by   1.097E+00 to match Exch10

  ==> F-SAPT Induction <==

  DFHelper Memory: AOs need 0.243 [GiB]; user supplied 0.439 [GiB]. Using in-core AOs.

  ==> DFHelper <==
    nao:                             166
    naux:                            888
    Schwarz cutoff:                1E-12
    Mask sparsity (%):                 2
    DFH Avail. Memory [GiB]:       0.439
    OpenMP threads:                   32
    Algorithm:                DIRECT_iaQ
    AO_core:                        True
    MO_core:                       False
    Hold Metric:                   False
    Metric Power:                 -5E-01
    Fitting condition:             1E-12
    Q Shell Max:                       9


    Ind20,u (A<-B)      =    -0.071082167872 [Eh]
    Ind20,u (B<-A)      =    -0.091915696071 [Eh]
    Ind20,u             =    -0.162997863943 [Eh]
    Exch-Ind20,u (A<-B) =     0.052200431603 [Eh]
    Exch-Ind20,u (B<-A) =     0.061448506210 [Eh]
    Exch-Ind20,u        =     0.113648937814 [Eh]

    Scaling for delta HF        =   1.473E+00
    Scaling for response (A<-B) =   1.127E+00
    Scaling for response (B<-A) =   1.312E+00
    Scaling for total (A<-B)    =   1.660E+00
    Scaling for total (B<-A)    =   1.933E+00

  ==> F-SAPT Dispersion <==

  DFHelper Memory: AOs need 0.246 [GiB]; user supplied 0.438 [GiB]. Using in-core AOs.

  ==> DFHelper <==
    nao:                             166
    naux:                            898
    Schwarz cutoff:                1E-12
    Mask sparsity (%):                 2
    DFH Avail. Memory [GiB]:       0.438
    OpenMP threads:                   32
    Algorithm:                DIRECT_iaQ
    AO_core:                        True
    MO_core:                       False
    Hold Metric:                   False
    Metric Power:                 -5E-01
    Fitting condition:             1E-12
    Q Shell Max:                       9


    Disp20              =    -0.043983038131 [Eh]
    Exch-Disp20         =     0.013653063952 [Eh]

  ==> F-SAPT Output <==

    F-SAPT Data Filepath = fsapt/

  ==> Results <==


    SAPT Results  
  --------------------------------------------------------------------------------------------------------
    Electrostatics               -141.12547616 [mEh]     -88.55757698 [kcal/mol]    -370.52493766 [kJ/mol]
      Elst10,r                   -141.12547616 [mEh]     -88.55757698 [kcal/mol]    -370.52493766 [kJ/mol]

    Exchange                      270.32705158 [mEh]     169.63279297 [kcal/mol]     709.74367392 [kJ/mol]
      Exch10                      270.32705158 [mEh]     169.63279297 [kcal/mol]     709.74367392 [kJ/mol]
      Exch10(S^2)                 246.33446626 [mEh]     154.57721776 [kcal/mol]     646.75114116 [kJ/mol]

    Induction                     -90.23893843 [mEh]     -56.62579114 [kcal/mol]    -236.92233286 [kJ/mol]
      Ind20,r                    -207.79720851 [mEh]    -130.39472241 [kcal/mol]    -545.57157094 [kJ/mol]
      Exch-Ind20,r                146.53991325 [mEh]      91.95518769 [kcal/mol]     384.74054223 [kJ/mol]
      delta HF,r (2)              -28.98164317 [mEh]     -18.18625642 [kcal/mol]     -76.09130414 [kJ/mol]
      Induction (A<-B)            -31.34501251 [mEh]     -19.66929313 [kcal/mol]     -82.29633035 [kJ/mol]
      Induction (B<-A)            -58.89392592 [mEh]     -36.95649801 [kcal/mol]    -154.62600251 [kJ/mol]

    Dispersion                    -30.32997418 [mEh]     -19.03234693 [kcal/mol]     -79.63134721 [kJ/mol]
      Disp20                      -43.98303813 [mEh]     -27.59977427 [kcal/mol]    -115.47746661 [kJ/mol]
      Exch-Disp20                  13.65306395 [mEh]       8.56742733 [kcal/mol]      35.84611941 [kJ/mol]

  Total HF                         38.96263698 [mEh]      24.44942485 [kcal/mol]     102.29640340 [kJ/mol]
  Total SAPT0                       8.63266281 [mEh]       5.41707792 [kcal/mol]      22.66505620 [kJ/mol]

  --------------------------------------------------------------------------------------------------------
    Han Solo: This is *not* gonna work.
    Luke Skywalker: Why didn't you say so before?
    Han Solo: I *did* say so before.

    Psi4 stopped on: Monday, 08 April 2019 02:15PM
    Psi4 wall time for execution: 0:00:10.91

*** Psi4 exiting successfully. Buy a developer a beer!
