
    -----------------------------------------------------------------------
          Psi4: An Open-Source Ab Initio Electronic Structure Package
                               Psi4 1.2.1 release

                         Git: Rev {HEAD} 406f4de 


    R. M. Parrish, L. A. Burns, D. G. A. Smith, A. C. Simmonett,
    A. E. DePrince III, E. G. Hohenstein, U. Bozkaya, A. Yu. Sokolov,
    R. Di Remigio, R. M. Richard, J. F. Gonthier, A. M. James,
    H. R. McAlexander, A. Kumar, M. Saitow, X. Wang, B. P. Pritchard,
    P. Verma, H. F. Schaefer III, K. Patkowski, R. A. King, E. F. Valeev,
    F. A. Evangelista, J. M. Turney, T. D. Crawford, and C. D. Sherrill,
    J. Chem. Theory Comput. 13(7) pp 3185--3197 (2017).
    (doi: 10.1021/acs.jctc.7b00174)


                         Additional Contributions by
    P. Kraus, H. Kruse, M. H. Lechner, M. C. Schieber, and R. A. Shaw

    -----------------------------------------------------------------------


    Psi4 started on: Tuesday, 19 March 2019 12:48PM

    Process ID: 8788
    Host:       localhost.localdomain
    PSIDATADIR: /root/psi4conda/share/psi4
    Memory:     500.0 MiB
    Threads:    1
    
  ==> Input File <==

--------------------------------------------------------------------------
molecule{
0 1
 C   -0.191037360183   -1.138391424433    0.066641131126
 O   -1.141654706899   -1.007273122828   -0.660259869229
 H    0.630522866133   -0.538777174062    1.941089940354
 H   -1.156959405200   -0.577653181741    1.888866146548
 H    1.302333037931    2.533922225257   -1.371891704266
 C    1.290758333413    1.543130220550   -0.908411660813
 H    1.238870631200    0.782252484959   -1.694965665881
 H    2.219956342449    1.410950239513   -0.354151700368
 O    0.232559615935    1.410609948737    0.021255059415
 H   -0.599372993737    1.372064858391   -0.456032556266
 C   -0.242590478866   -1.071283316508    1.563667151188
 H   -0.220778663868   -2.092507817782    1.957934582588
 H    0.807721036782   -1.355068341661   -0.364878396169 
}

set{
   basis 6-311++G(d,p)
   freeze_core True
}


set_num_threads(32)
optimize('m06-2x')
--------------------------------------------------------------------------
  Threads set to 32 by Python driver.
gradient() will perform analytic gradient computation.

*** tstart() called on localhost.localdomain
*** at Tue Mar 19 12:48:05 2019

   => Loading Basis Set <=

    Name: 6-311++G(D,P)
    Role: ORBITAL
    Keyword: BASIS
    atoms 1, 6, 11            entry C          line   119 file /root/psi4conda/share/psi4/basis/6-311ppg_d_p_.gbs 
    atoms 2, 9                entry O          line   161 file /root/psi4conda/share/psi4/basis/6-311ppg_d_p_.gbs 
    atoms 3-5, 7-8, 10, 12-13 entry H          line    42 file /root/psi4conda/share/psi4/basis/6-311ppg_d_p_.gbs 


         ---------------------------------------------------------
                                   SCF
            by Justin Turney, Rob Parrish, Andy Simmonett
                             and Daniel Smith
                              RKS Reference
                       32 Threads,    500 MiB Core
         ---------------------------------------------------------

  ==> Geometry <==

    Molecular point group: c1
    Full point group: C1

    Geometry (in Angstrom), charge = 0, multiplicity = 1:

       Center              X                  Y                   Z               Mass       
    ------------   -----------------  -----------------  -----------------  -----------------
         C           -0.191037360183    -1.138391424433     0.066641131126    12.000000000000
         O           -1.141654706899    -1.007273122828    -0.660259869229    15.994914619560
         H            0.630522866133    -0.538777174062     1.941089940354     1.007825032070
         H           -1.156959405200    -0.577653181741     1.888866146548     1.007825032070
         H            1.302333037931     2.533922225257    -1.371891704266     1.007825032070
         C            1.290758333413     1.543130220550    -0.908411660813    12.000000000000
         H            1.238870631200     0.782252484959    -1.694965665881     1.007825032070
         H            2.219956342449     1.410950239513    -0.354151700368     1.007825032070
         O            0.232559615935     1.410609948737     0.021255059415    15.994914619560
         H           -0.599372993737     1.372064858391    -0.456032556266     1.007825032070
         C           -0.242590478866    -1.071283316508     1.563667151188    12.000000000000
         H           -0.220778663868    -2.092507817782     1.957934582588     1.007825032070
         H            0.807721036782    -1.355068341661    -0.364878396169     1.007825032070

  Running in c1 symmetry.

  Rotational constants: A =      0.24754  B =      0.08860  C =      0.07571 [cm^-1]
  Rotational constants: A =   7420.96911  B =   2656.10836  C =   2269.58683 [MHz]
  Nuclear repulsion =  181.688024590607370

  Charge       = 0
  Multiplicity = 1
  Electrons    = 42
  Nalpha       = 21
  Nbeta        = 21

  ==> Algorithm <==

  SCF Algorithm Type is DF.
  DIIS enabled.
  MOM disabled.
  Fractional occupation disabled.
  Guess Type is SAD.
  Energy threshold   = 1.00e-08
  Density threshold  = 1.00e-08
  Integral threshold = 0.00e+00

  ==> Primary Basis <==

  Basis Set: 6-311++G(D,P)
    Blend: 6-311++G(D,P)
    Number of shells: 90
    Number of basis function: 166
    Number of Cartesian functions: 171
    Spherical Harmonics?: true
    Max angular momentum: 2

  ==> DFT Potential <==

   => Composite Functional: M06-2X <= 

    Hybrid M06-2X Meta-GGA XC Functional

    Y. Zhao and D. G. Truhlar,  Theor. Chem. Acc., 120, 215, 2008


    Deriv               =              1
    GGA                 =           TRUE
    Meta                =           TRUE

    Exchange Hybrid     =           TRUE
    MP2 Hybrid          =          FALSE

   => Exchange Functionals <=

    1.0000   XC_HYB_MGGA_X_M06_2X

   => Exact (HF) Exchange <=

    0.5400               HF 

   => Correlation Functionals <=

    1.0000   XC_MGGA_C_M06_2X

   => Molecular Quadrature <=

    Radial Scheme       =       TREUTLER
    Pruning Scheme      =           FLAT
    Nuclear Scheme      =       TREUTLER

    BS radius alpha     =              1
    Pruning alpha       =              1
    Radial Points       =             75
    Spherical Points    =            302
    Total Points        =         294450
    Total Blocks        =           2234
    Max Points          =            256
    Max Functions       =            165

   => Loading Basis Set <=

    Name: (6-311++G(D,P) AUX)
    Role: JKFIT
    Keyword: DF_BASIS_SCF
    atoms 1, 6, 11            entry C          line   162 file /root/psi4conda/share/psi4/basis/aug-cc-pvtz-jkfit.gbs 
    atoms 2, 9                entry O          line   286 file /root/psi4conda/share/psi4/basis/aug-cc-pvtz-jkfit.gbs 
    atoms 3-5, 7-8, 10, 12-13 entry H          line    70 file /root/psi4conda/share/psi4/basis/aug-cc-pvtz-jkfit.gbs 

  ==> Pre-Iterations <==

   -------------------------------------------------------
    Irrep   Nso     Nmo     Nalpha   Nbeta   Ndocc  Nsocc
   -------------------------------------------------------
     A        166     166       0       0       0       0
   -------------------------------------------------------
    Total     166     166      21      21      21       0
   -------------------------------------------------------

  ==> Integral Setup <==

  DFHelper Memory: AOs need 0.235 [GiB]; user supplied 0.366 [GiB]. Using in-core AOs.

  ==> MemDFJK: Density-Fitted J/K Matrices <==

    J tasked:                   Yes
    K tasked:                   Yes
    wK tasked:                   No
    OpenMP threads:              32
    Memory (MB):                375
    Algorithm:                 Core
    Schwarz Cutoff:           1E-12
    Mask sparsity (%):       3.3241
    Fitting Condition:        1E-12

   => Auxiliary Basis Set <=

  Basis Set: (6-311++G(D,P) AUX)
    Blend: AUG-CC-PVTZ-JKFIT
    Number of shells: 262
    Number of basis function: 888
    Number of Cartesian functions: 1095
    Spherical Harmonics?: true
    Max angular momentum: 4

  Minimum eigenvalue in the overlap matrix is 6.5647539524E-05.
  Using Symmetric Orthogonalization.

  SCF Guess: Superposition of Atomic Densities via on-the-fly atomic UHF.

  ==> Iterations <==

                           Total Energy        Delta E     RMS |[F,P]|

   @DF-RKS iter   0:  -270.06199806234599   -2.70062e+02   1.18491e-01 
   @DF-RKS iter   1:  -269.37608007067985    6.85918e-01   1.34635e-02 
   @DF-RKS iter   2:  -269.38356187053813   -7.48180e-03   1.64057e-02 DIIS
   @DF-RKS iter   3:  -269.51139373126836   -1.27832e-01   2.72525e-03 DIIS
   @DF-RKS iter   4:  -269.51423583749909   -2.84211e-03   1.22007e-03 DIIS
   @DF-RKS iter   5:  -269.51518486809687   -9.49031e-04   2.99793e-04 DIIS
   @DF-RKS iter   6:  -269.51525532299809   -7.04549e-05   1.63375e-04 DIIS
   @DF-RKS iter   7:  -269.51527114163588   -1.58186e-05   2.90175e-05 DIIS
   @DF-RKS iter   8:  -269.51527270540811   -1.56377e-06   8.03719e-06 DIIS
   @DF-RKS iter   9:  -269.51527289264379   -1.87236e-07   3.78195e-06 DIIS
   @DF-RKS iter  10:  -269.51527294319919   -5.05554e-08   1.24570e-06 DIIS
   @DF-RKS iter  11:  -269.51527294868271   -5.48351e-09   3.33019e-07 DIIS
   @DF-RKS iter  12:  -269.51527294880952   -1.26818e-10   5.41905e-08 DIIS
   @DF-RKS iter  13:  -269.51527294881367   -4.14957e-12   2.69942e-08 DIIS
   @DF-RKS iter  14:  -269.51527294881407   -3.97904e-13   5.47451e-09 DIIS

  ==> Post-Iterations <==

    Orbital Energies [Eh]
    ---------------------

    Doubly Occupied:                                                      

       1A    -19.628162     2A    -19.621223     3A    -10.633337  
       4A    -10.585167     5A    -10.538104     6A     -1.177244  
       7A     -1.152304     8A     -0.845078     9A     -0.784940  
      10A     -0.664605    11A     -0.595606    12A     -0.558637  
      13A     -0.536064    14A     -0.514824    15A     -0.511967  
      16A     -0.497881    17A     -0.458903    18A     -0.433887  
      19A     -0.415485    20A     -0.359643    21A     -0.329356  

    Virtual:                                                              

      22A     -0.003864    23A      0.010551    24A      0.013872  
      25A      0.018952    26A      0.026035    27A      0.039246  
      28A      0.043670    29A      0.051811    30A      0.062085  
      31A      0.069872    32A      0.088300    33A      0.093939  
      34A      0.103483    35A      0.111649    36A      0.122867  
      37A      0.124910    38A      0.138082    39A      0.142239  
      40A      0.146997    41A      0.155529    42A      0.167627  
      43A      0.202624    44A      0.210636    45A      0.217798  
      46A      0.219573    47A      0.227147    48A      0.245019  
      49A      0.252569    50A      0.270687    51A      0.279948  
      52A      0.296738    53A      0.308720    54A      0.326699  
      55A      0.335372    56A      0.341764    57A      0.351787  
      58A      0.354367    59A      0.360339    60A      0.412435  
      61A      0.445744    62A      0.462223    63A      0.482888  
      64A      0.491202    65A      0.544080    66A      0.583215  
      67A      0.585383    68A      0.618048    69A      0.632897  
      70A      0.671598    71A      0.692259    72A      0.693159  
      73A      0.702758    74A      0.713491    75A      0.719687  
      76A      0.749801    77A      0.765272    78A      0.780608  
      79A      0.899242    80A      0.927385    81A      0.960351  
      82A      1.027774    83A      1.047326    84A      1.071107  
      85A      1.121919    86A      1.165324    87A      1.185033  
      88A      1.246598    89A      1.256076    90A      1.295668  
      91A      1.329312    92A      1.384758    93A      1.465501  
      94A      1.473568    95A      1.496653    96A      1.499048  
      97A      1.520632    98A      1.541683    99A      1.558810  
     100A      1.588008   101A      1.599885   102A      1.611342  
     103A      1.635315   104A      1.664155   105A      1.700674  
     106A      1.735536   107A      1.746193   108A      1.778835  
     109A      1.811317   110A      1.836606   111A      1.903607  
     112A      1.962921   113A      1.970032   114A      2.048940  
     115A      2.085645   116A      2.122408   117A      2.165625  
     118A      2.186165   119A      2.254700   120A      2.276588  
     121A      2.364140   122A      2.458718   123A      2.479291  
     124A      2.501192   125A      2.535937   126A      2.543253  
     127A      2.548894   128A      2.561736   129A      2.585505  
     130A      2.611020   131A      2.618137   132A      2.693484  
     133A      2.729423   134A      2.752833   135A      2.888347  
     136A      2.919140   137A      2.943845   138A      2.977172  
     139A      2.994549   140A      3.071793   141A      3.164359  
     142A      3.225203   143A      3.279913   144A      3.353165  
     145A      3.424740   146A      3.557682   147A      3.565907  
     148A      3.793808   149A      3.839807   150A      3.845870  
     151A      3.896562   152A      3.958659   153A      3.979645  
     154A      4.089543   155A      4.205271   156A      5.158801  
     157A      5.244548   158A      5.271063   159A      5.512283  
     160A      5.752295   161A      5.820750   162A     23.954640  
     163A     23.999105   164A     24.046227   165A     50.015007  
     166A     50.084221  

    Final Occupation by Irrep:
              A 
    DOCC [    21 ]

  Energy converged.

  @DF-RKS Final Energy:  -269.51527294881407

   => Energetics <=

    Nuclear Repulsion Energy =            181.6880245906073696
    One-Electron Energy =                -726.2906198343522419
    Two-Electron Energy =                 292.6056000307288514
    DFT Exchange-Correlation Energy =     -17.5182777357980655
    Empirical Dispersion Energy =           0.0000000000000000
    VV10 Nonlocal Energy =                  0.0000000000000000
    Total Energy =                       -269.5152729488140722



Properties will be evaluated at   0.000000,   0.000000,   0.000000 [a0]

Properties computed using the SCF density matrix

  Nuclear Dipole Moment: [e a0]
     X:     3.9539      Y:     1.4411      Z:     1.4462

  Electronic Dipole Moment: [e a0]
     X:    -3.1778      Y:    -1.3951      Z:    -1.3056

  Dipole Moment: [e a0]
     X:     0.7761      Y:     0.0461      Z:     0.1407     Total:     0.7901

  Dipole Moment: [D]
     X:     1.9726      Y:     0.1171      Z:     0.3576     Total:     2.0081


*** tstop() called on localhost.localdomain at Tue Mar 19 12:48:14 2019
Module time:
	user time   =     202.68 seconds =       3.38 minutes
	system time =       5.89 seconds =       0.10 minutes
	total time  =          9 seconds =       0.15 minutes
Total time:
	user time   =     202.68 seconds =       3.38 minutes
	system time =       5.89 seconds =       0.10 minutes
	total time  =          9 seconds =       0.15 minutes

*** tstart() called on localhost.localdomain
*** at Tue Mar 19 12:48:14 2019


         ------------------------------------------------------------
                                   SCF GRAD                          
                          Rob Parrish, Justin Turney,                
                       Andy Simmonett, and Alex Sokolov              
         ------------------------------------------------------------

  ==> Geometry <==

    Molecular point group: c1
    Full point group: C1

    Geometry (in Angstrom), charge = 0, multiplicity = 1:

       Center              X                  Y                   Z               Mass       
    ------------   -----------------  -----------------  -----------------  -----------------
         C           -0.191037360183    -1.138391424433     0.066641131126    12.000000000000
         O           -1.141654706899    -1.007273122828    -0.660259869229    15.994914619560
         H            0.630522866133    -0.538777174062     1.941089940354     1.007825032070
         H           -1.156959405200    -0.577653181741     1.888866146548     1.007825032070
         H            1.302333037931     2.533922225257    -1.371891704266     1.007825032070
         C            1.290758333413     1.543130220550    -0.908411660813    12.000000000000
         H            1.238870631200     0.782252484959    -1.694965665881     1.007825032070
         H            2.219956342449     1.410950239513    -0.354151700368     1.007825032070
         O            0.232559615935     1.410609948737     0.021255059415    15.994914619560
         H           -0.599372993737     1.372064858391    -0.456032556266     1.007825032070
         C           -0.242590478866    -1.071283316508     1.563667151188    12.000000000000
         H           -0.220778663868    -2.092507817782     1.957934582588     1.007825032070
         H            0.807721036782    -1.355068341661    -0.364878396169     1.007825032070

  Nuclear repulsion =  181.688024590607370

  ==> Basis Set <==

  Basis Set: 6-311++G(D,P)
    Blend: 6-311++G(D,P)
    Number of shells: 90
    Number of basis function: 166
    Number of Cartesian functions: 171
    Spherical Harmonics?: true
    Max angular momentum: 2

  ==> DFJKGrad: Density-Fitted SCF Gradients <==

    Gradient:                    1
    J tasked:                  Yes
    K tasked:                  Yes
    wK tasked:                  No
    OpenMP threads:             32
    Integrals threads:          32
    Memory (MB):               375
    Schwarz Cutoff:          0E+00
    Fitting Condition:       1E-12

   => Auxiliary Basis Set <=

  Basis Set: (6-311++G(D,P) AUX)
    Blend: AUG-CC-PVTZ-JKFIT
    Number of shells: 262
    Number of basis function: 888
    Number of Cartesian functions: 1095
    Spherical Harmonics?: true
    Max angular momentum: 4

  ==> DFT Potential <==

   => Composite Functional: M06-2X <= 

    Hybrid M06-2X Meta-GGA XC Functional

    Y. Zhao and D. G. Truhlar,  Theor. Chem. Acc., 120, 215, 2008


    Deriv               =              1
    GGA                 =           TRUE
    Meta                =           TRUE

    Exchange Hybrid     =           TRUE
    MP2 Hybrid          =          FALSE

   => Exchange Functionals <=

    1.0000   XC_HYB_MGGA_X_M06_2X

   => Exact (HF) Exchange <=

    0.5400               HF 

   => Correlation Functionals <=

    1.0000   XC_MGGA_C_M06_2X

   => Molecular Quadrature <=

    Radial Scheme       =       TREUTLER
    Pruning Scheme      =           FLAT
    Nuclear Scheme      =       TREUTLER

    BS radius alpha     =              1
    Pruning alpha       =              1
    Radial Points       =             75
    Spherical Points    =            302
    Total Points        =         294450
    Total Blocks        =           2234
    Max Points          =            256
    Max Functions       =            165


  -Total Gradient:
     Atom            X                  Y                   Z
    ------   -----------------  -----------------  -----------------
       1        0.000657504888     0.002114245772    -0.000226705063
       2        0.000327899731     0.001402348044     0.000086839525
       3        0.000186689917    -0.000177600246     0.000059145653
       4        0.000180634645     0.000261622857     0.000020381249
       5       -0.000007947225    -0.000014521026     0.000199491921
       6       -0.000369950870    -0.000945368609     0.000765149334
       7        0.000060634869     0.000023471094    -0.000043900068
       8       -0.000059621952    -0.000137375637     0.000144664836
       9       -0.003064656252    -0.003666937957    -0.001458307800
      10        0.001288757001    -0.000083351105     0.000648366126
      11        0.000814149479     0.000877274127    -0.000127327546
      12       -0.000203228578     0.000029808517    -0.000103251105
      13        0.000067754489     0.000309017559    -0.000044495009


*** tstop() called on localhost.localdomain at Tue Mar 19 12:48:17 2019
Module time:
	user time   =      85.80 seconds =       1.43 minutes
	system time =       3.97 seconds =       0.07 minutes
	total time  =          3 seconds =       0.05 minutes
Total time:
	user time   =     288.52 seconds =       4.81 minutes
	system time =       9.86 seconds =       0.16 minutes
	total time  =         12 seconds =       0.20 minutes

			-----------------------------------------
			 OPTKING 2.0: for geometry optimizations 
			  - R.A. King,  Bethel University        
			-----------------------------------------

	Internal coordinates to be generated automatically.
	Detected frag 1 with atoms:  1 2 3 4 11 12 13
	Detected frag 2 with atoms:  5 6 7 8 9 10
	Unifying fragments since fragment_mode == SINGLE
	Increasing scaling to  2.200 to connect fragments.
	Increasing scaling to  2.600 to connect fragments.
	Connecting fragments 1 and 2
	---Fragment 1 Bond Connectivity---
	 1 : 2 11 13
	 2 : 1 10
	 3 : 11
	 4 : 11
	 5 : 6
	 6 : 5 7 8 9
	 7 : 6
	 8 : 6
	 9 : 6 10
	 10 : 2 9
	 11 : 1 3 4 12
	 12 : 11
	 13 : 1

	---Fragment 1 Geometry and Gradient---
	 C          -0.3610082919       -2.1512480242        0.1259334870
	 O          -2.1574147344       -1.9034703432       -1.2477103294
	 H           1.1915155375       -1.0181413056        3.6681283866
	 H          -2.1863364227       -1.0916063133        3.5694397187
	 H           2.4610527755        4.7884190478       -2.5924996050
	 C           2.4391797539        2.9160935042       -1.7166492549
	 H           2.3411262070        1.4782429633       -3.2030209132
	 H           4.1951095142        2.6663095398       -0.6692497232
	 O           0.4394739837        2.6656664834        0.0401662412
	 H          -1.1326508096        2.5928268189       -0.8617766390
	 C          -0.4584295675       -2.0244320789        2.9549026787
	 H          -0.4172112107       -3.9542667065        3.6999601472
	 H           1.5263715513       -2.5607080571       -0.6895202406
	             0.0006575049        0.0021142458       -0.0002267051
	             0.0003278997        0.0014023480        0.0000868395
	             0.0001866899       -0.0001776002        0.0000591457
	             0.0001806346        0.0002616229        0.0000203812
	            -0.0000079472       -0.0000145210        0.0001994919
	            -0.0003699509       -0.0009453686        0.0007651493
	             0.0000606349        0.0000234711       -0.0000439001
	            -0.0000596220       -0.0001373756        0.0001446648
	            -0.0030646563       -0.0036669380       -0.0014583078
	             0.0012887570       -0.0000833511        0.0006483661
	             0.0008141495        0.0008772741       -0.0001273275
	            -0.0002032286        0.0000298085       -0.0001032511
	             0.0000677545        0.0003090176       -0.0000444950

	Previous optimization step data not found.  Starting new optimization.

	---Fragment 1 Intrafragment Coordinates---
	 - Coordinate -           - BOHR/RAD -       - ANG/DEG -
	 R(1,2)           =         2.274943	       1.203848
	 R(1,11)          =         2.833485	       1.499416
	 R(1,13)          =         2.096384	       1.109359
	 R(2,10)          =         4.627718	       2.448883
	 R(3,11)          =         2.060007	       1.090109
	 R(4,11)          =         2.057543	       1.088805
	 R(5,6)           =         2.067171	       1.093900
	 R(6,7)           =         2.070345	       1.095580
	 R(6,8)           =         2.059788	       1.089993
	 R(6,9)           =         2.673563	       1.414788
	 R(9,10)          =         1.813941	       0.959896
	 R(11,12)         =         2.069075	       1.094907
	 B(1,2,10)        =         1.451118	      83.142924
	 B(1,11,3)        =         1.917711	     109.876739
	 B(1,11,4)        =         1.925555	     110.326174
	 B(1,11,12)       =         1.893455	     108.486966
	 B(2,1,11)        =         2.178310	     124.807959
	 B(2,1,13)        =         2.091308	     119.823094
	 B(2,10,9)        =         1.846685	     105.807264
	 B(3,11,4)        =         1.925966	     110.349713
	 B(3,11,12)       =         1.891239	     108.360034
	 B(4,11,12)       =         1.909260	     109.392521
	 B(5,6,7)         =         1.902181	     108.986935
	 B(5,6,8)         =         1.892586	     108.437186
	 B(5,6,9)         =         1.951061	     111.787555
	 B(6,9,10)        =         1.902099	     108.982228
	 B(7,6,8)         =         1.897817	     108.736923
	 B(7,6,9)         =         1.951187	     111.794777
	 B(8,6,9)         =         1.867240	     106.984981
	 B(11,1,13)       =         2.013138	     115.344323
	 D(1,2,10,9)      =         0.126083	       7.224015
	 D(2,1,11,3)      =        -2.448975	    -140.315957
	 D(2,1,11,4)      =        -0.321632	     -18.428172
	 D(2,1,11,12)     =         1.769537	     101.387027
	 D(2,10,9,6)      =         1.695567	      97.148850
	 D(3,11,1,13)     =         0.724318	      41.500357
	 D(4,11,1,13)     =         2.851661	     163.388142
	 D(5,6,9,10)      =         1.239194	      71.000599
	 D(7,6,9,10)      =        -0.898703	     -51.491896
	 D(8,6,9,10)      =        -2.974567	    -170.430157
	 D(10,2,1,11)     =         1.508216	      86.414419
	 D(10,2,1,13)     =        -1.666400	     -95.477682
	 D(12,11,1,13)    =        -1.340355	     -76.796659
	 R(1,6)           =         6.075699	       3.215121
	 R(9,11)          =         5.594546	       2.960506

	Current energy   :      -269.5152729488

	Generating empirical Hessian (Schlegel '84) for each fragment.
	Taking RFO optimization step.
	Going to follow RFO solution 1.
	Using RFO vector 1.
	Norm of target step-size    0.38473
	Projected energy change by RFO approximation:        -0.0005168214

	Back-transformation to cartesian coordinates...
	Could not converge backtransformation.
	Using first guess instead.

	--- Internal Coordinate Step in ANG or DEG, aJ/ANG or AJ/DEG ---
	 ---------------------------------------------------------------------------
	   Coordinate                Previous        Force       Change         New 
	   ----------                --------       ------       ------       ------
	    1 R(1,2)          =      1.203848    -0.007819     0.004894     1.208742
	    2 R(1,11)         =      1.499416    -0.005196     0.006138     1.505554
	    3 R(1,13)         =      1.109359    -0.000139     0.005626     1.114985
	    4 R(2,10)         =      2.448883     0.015198     0.055220     2.504103
	    5 R(3,11)         =      1.090109    -0.000642     0.006766     1.096875
	    6 R(4,11)         =      1.088805     0.000239     0.005690     1.094495
	    7 R(5,6)          =      1.093900     0.000866     0.003853     1.097752
	    8 R(6,7)          =      1.095580     0.000014     0.007951     1.103530
	    9 R(6,8)          =      1.089993    -0.000559     0.016579     1.106572
	   10 R(6,9)          =      1.414788    -0.002513     0.021409     1.436197
	   11 R(9,10)         =      0.959896     0.022613     0.015743     0.975639
	   12 R(11,12)        =      1.094907     0.000535     0.000450     1.095357
	   13 B(1,2,10)       =     83.142924    -0.000080    -1.326913    81.816011
	   14 B(1,11,3)       =    109.876739    -0.000002     0.038891   109.915630
	   15 B(1,11,4)       =    110.326174    -0.000006     0.156745   110.482919
	   16 B(1,11,12)      =    108.486966     0.000011    -0.112405   108.374561
	   17 B(2,1,11)       =    124.807959    -0.000122    -0.342648   124.465310
	   18 B(2,1,13)       =    119.823094     0.000064     0.042604   119.865698
	   19 B(2,10,9)       =    105.807264     0.000210    -0.633474   105.173790
	   20 B(3,11,4)       =    110.349713     0.000003     0.066681   110.416394
	   21 B(3,11,12)      =    108.360034    -0.000001     0.052906   108.412940
	   22 B(4,11,12)      =    109.392521    -0.000005    -0.209915   109.182606
	   23 B(5,6,7)        =    108.986935    -0.000008    -0.869019   108.117916
	   24 B(5,6,8)        =    108.437186    -0.000006     0.061814   108.499000
	   25 B(5,6,9)        =    111.787555     0.000008     0.208217   111.995772
	   26 B(6,9,10)       =    108.982228    -0.000211    -0.968118   108.014110
	   27 B(7,6,8)        =    108.736923     0.000001     0.301805   109.038729
	   28 B(7,6,9)        =    111.794777    -0.000018     0.176864   111.971640
	   29 B(8,6,9)        =    106.984981     0.000025     0.146927   107.131908
	   30 B(11,1,13)      =    115.344323     0.000059     0.312944   115.657266
	   31 D(1,2,10,9)     =      7.224015     0.000018    15.590541    22.814556
	   32 D(2,1,11,3)     =   -140.315957     0.000007     3.669088  -136.646870
	   33 D(2,1,11,4)     =    -18.428172     0.000006     3.881881   -14.546292
	   34 D(2,1,11,12)    =    101.387027     0.000006     3.649246   105.036273
	   35 D(2,10,9,6)     =     97.148850    -0.000039    -7.675461    89.473389
	   36 D(3,11,1,13)    =     41.500357     0.000003     0.600645    42.101002
	   37 D(4,11,1,13)    =    163.388142     0.000003     0.813438   164.201580
	   38 D(5,6,9,10)     =     71.000599    -0.000006    -2.787261    68.213338
	   39 D(7,6,9,10)     =    -51.491896    -0.000001    -1.937635   -53.429531
	   40 D(8,6,9,10)     =   -170.430157    -0.000003    -2.501211  -172.931368
	   41 D(10,2,1,11)    =     86.414419    -0.000006    -3.414807    82.999612
	   42 D(10,2,1,13)    =    -95.477682    -0.000003    -0.221182   -95.698863
	   43 D(12,11,1,13)   =    -76.796659     0.000002     0.580803   -76.215856
	   44 R(1,6)          =      3.215121     0.018104     0.050664     3.265785
	   45 R(9,11)         =      2.960506     0.013249     0.079165     3.039671
	 ---------------------------------------------------------------------------
	Successfully symmetrized geometry.

  ==> Convergence Check <==

  Measures of convergence in internal coordinates in au.
  Criteria marked as inactive (o), active & met (*), and active & unmet ( ).
  --------------------------------------------------------------------------------------------- ~
   Step     Total Energy     Delta E     MAX Force     RMS Force      MAX Disp      RMS Disp    ~
  --------------------------------------------------------------------------------------------- ~
    Convergence Criteria    1.00e-06 *    3.00e-04 *             o    1.20e-03 *             o  ~
  --------------------------------------------------------------------------------------------- ~
      1    -269.51527295   -2.70e+02      2.78e-03      1.02e-03 o    2.72e-01      6.01e-02 o  ~
  ---------------------------------------------------------------------------------------------

	Writing optimization data to binary file.
	Structure for next step:
	Cartesian Geometry (in Angstrom)
	    C    -0.1320679642  -1.1503391690   0.0998323803
	    O    -1.0121778298  -0.9837802379  -0.7117841614
	    H     0.4760619377  -0.5547792735   2.0671584333
	    H    -1.3043679269  -0.6849702791   1.8396583611
	    H     1.2207806750   2.5616265358  -1.4672833999
	    C     1.2991129412   1.5709244111  -1.0009855266
	    H     1.1153040888   0.8100317363  -1.7788260696
	    H     2.3270512217   1.4469491389  -0.6105057751
	    O     0.4034559067   1.4282130153   0.1126097217
	    H    -0.5089380681   1.4220341671  -0.2328909931
	    C    -0.3325934675  -1.1232659699   1.5917271401
	    H    -0.2967296603  -2.1529122802   1.9636807109
	    H     0.9154364008  -1.3177561965  -0.2435283634
			--------------------------
			 OPTKING Finished Execution 
			--------------------------

    Structure for next step:
    Molecular point group: c1
    Full point group: C1

    Geometry (in Angstrom), charge = 0, multiplicity = 1:

    C           -0.187982393654    -1.153214727303     0.096510493986
    O           -1.068092259312    -0.986655796130    -0.715106047655
    H            0.420147508212    -0.557654831754     2.063836547074
    H           -1.360282356442    -0.687845837408     1.836336474859
    H            1.164866245515     2.558750977576    -1.470605286203
    C            1.243198511724     1.568048852873    -1.004307412914
    H            1.059389659266     0.807156178024    -1.782147955906
    H            2.271136792205     1.444073580637    -0.613827661336
    O            0.347541477217     1.425337457010     0.109287835458
    H           -0.564852497558     1.419158608881    -0.236212879390
    C           -0.388507897032    -1.126141528180     1.588405253881
    H           -0.352644089748    -2.155787838453     1.960358824638
    H            0.859521971299    -1.320631754771    -0.246850249707

gradient() will perform analytic gradient computation.

*** tstart() called on localhost.localdomain
*** at Tue Mar 19 12:48:17 2019

   => Loading Basis Set <=

    Name: 6-311++G(D,P)
    Role: ORBITAL
    Keyword: BASIS
    atoms 1, 6, 11            entry C          line   119 file /root/psi4conda/share/psi4/basis/6-311ppg_d_p_.gbs 
    atoms 2, 9                entry O          line   161 file /root/psi4conda/share/psi4/basis/6-311ppg_d_p_.gbs 
    atoms 3-5, 7-8, 10, 12-13 entry H          line    42 file /root/psi4conda/share/psi4/basis/6-311ppg_d_p_.gbs 


         ---------------------------------------------------------
                                   SCF
            by Justin Turney, Rob Parrish, Andy Simmonett
                             and Daniel Smith
                              RKS Reference
                       32 Threads,    500 MiB Core
         ---------------------------------------------------------

  ==> Geometry <==

    Molecular point group: c1
    Full point group: C1

    Geometry (in Angstrom), charge = 0, multiplicity = 1:

       Center              X                  Y                   Z               Mass       
    ------------   -----------------  -----------------  -----------------  -----------------
         C           -0.187982393654    -1.153214727303     0.096510493986    12.000000000000
         O           -1.068092259312    -0.986655796130    -0.715106047655    15.994914619560
         H            0.420147508212    -0.557654831754     2.063836547074     1.007825032070
         H           -1.360282356442    -0.687845837408     1.836336474859     1.007825032070
         H            1.164866245515     2.558750977576    -1.470605286203     1.007825032070
         C            1.243198511724     1.568048852873    -1.004307412914    12.000000000000
         H            1.059389659266     0.807156178024    -1.782147955906     1.007825032070
         H            2.271136792205     1.444073580637    -0.613827661336     1.007825032070
         O            0.347541477217     1.425337457010     0.109287835458    15.994914619560
         H           -0.564852497558     1.419158608881    -0.236212879390     1.007825032070
         C           -0.388507897032    -1.126141528180     1.588405253881    12.000000000000
         H           -0.352644089748    -2.155787838453     1.960358824638     1.007825032070
         H            0.859521971299    -1.320631754771    -0.246850249707     1.007825032070

  Running in c1 symmetry.

  Rotational constants: A =      0.24999  B =      0.08604  C =      0.07273 [cm^-1]
  Rotational constants: A =   7494.59865  B =   2579.55383  C =   2180.45086 [MHz]
  Nuclear repulsion =  179.835333251073422

  Charge       = 0
  Multiplicity = 1
  Electrons    = 42
  Nalpha       = 21
  Nbeta        = 21

  ==> Algorithm <==

  SCF Algorithm Type is DF.
  DIIS enabled.
  MOM disabled.
  Fractional occupation disabled.
  Guess Type is READ.
  Energy threshold   = 1.00e-08
  Density threshold  = 1.00e-08
  Integral threshold = 0.00e+00

  ==> Primary Basis <==

  Basis Set: 6-311++G(D,P)
    Blend: 6-311++G(D,P)
    Number of shells: 90
    Number of basis function: 166
    Number of Cartesian functions: 171
    Spherical Harmonics?: true
    Max angular momentum: 2

  ==> DFT Potential <==

   => Composite Functional: M06-2X <= 

    Hybrid M06-2X Meta-GGA XC Functional

    Y. Zhao and D. G. Truhlar,  Theor. Chem. Acc., 120, 215, 2008


    Deriv               =              1
    GGA                 =           TRUE
    Meta                =           TRUE

    Exchange Hybrid     =           TRUE
    MP2 Hybrid          =          FALSE

   => Exchange Functionals <=

    1.0000   XC_HYB_MGGA_X_M06_2X

   => Exact (HF) Exchange <=

    0.5400               HF 

   => Correlation Functionals <=

    1.0000   XC_MGGA_C_M06_2X

   => Molecular Quadrature <=

    Radial Scheme       =       TREUTLER
    Pruning Scheme      =           FLAT
    Nuclear Scheme      =       TREUTLER

    BS radius alpha     =              1
    Pruning alpha       =              1
    Radial Points       =             75
    Spherical Points    =            302
    Total Points        =         294450
    Total Blocks        =           2244
    Max Points          =            256
    Max Functions       =            166

   => Loading Basis Set <=

    Name: (6-311++G(D,P) AUX)
    Role: JKFIT
    Keyword: DF_BASIS_SCF
    atoms 1, 6, 11            entry C          line   162 file /root/psi4conda/share/psi4/basis/aug-cc-pvtz-jkfit.gbs 
    atoms 2, 9                entry O          line   286 file /root/psi4conda/share/psi4/basis/aug-cc-pvtz-jkfit.gbs 
    atoms 3-5, 7-8, 10, 12-13 entry H          line    70 file /root/psi4conda/share/psi4/basis/aug-cc-pvtz-jkfit.gbs 

  Reading orbitals from file 180, no projection.

  ==> Pre-Iterations <==

   -------------------------------------------------------
    Irrep   Nso     Nmo     Nalpha   Nbeta   Ndocc  Nsocc
   -------------------------------------------------------
     A        166     166       0       0       0       0
   -------------------------------------------------------
    Total     166     166      21      21      21       0
   -------------------------------------------------------

  ==> Integral Setup <==

  DFHelper Memory: AOs need 0.234 [GiB]; user supplied 0.366 [GiB]. Using in-core AOs.

  ==> MemDFJK: Density-Fitted J/K Matrices <==

    J tasked:                   Yes
    K tasked:                   Yes
    wK tasked:                   No
    OpenMP threads:              32
    Memory (MB):                375
    Algorithm:                 Core
    Schwarz Cutoff:           1E-12
    Mask sparsity (%):       3.7524
    Fitting Condition:        1E-12

   => Auxiliary Basis Set <=

  Basis Set: (6-311++G(D,P) AUX)
    Blend: AUG-CC-PVTZ-JKFIT
    Number of shells: 262
    Number of basis function: 888
    Number of Cartesian functions: 1095
    Spherical Harmonics?: true
    Max angular momentum: 4

  Minimum eigenvalue in the overlap matrix is 6.8302134985E-05.
  Using Symmetric Orthogonalization.

  SCF Guess: Orbitals guess was supplied from a previous computation.

  ==> Iterations <==

                           Total Energy        Delta E     RMS |[F,P]|

   @DF-RKS iter   0:  -269.42154621053328   -2.69422e+02   7.77292e-03 
   @DF-RKS iter   1:  -269.51316204431566   -9.16158e-02   1.64220e-03 
   @DF-RKS iter   2:  -269.51440525875307   -1.24321e-03   1.26572e-03 DIIS
   @DF-RKS iter   3:  -269.51538435232055   -9.79094e-04   2.68249e-04 DIIS
   @DF-RKS iter   4:  -269.51543436998992   -5.00177e-05   1.53392e-04 DIIS
   @DF-RKS iter   5:  -269.51545135474930   -1.69848e-05   4.59005e-05 DIIS
   @DF-RKS iter   6:  -269.51545318267245   -1.82792e-06   2.15732e-05 DIIS
   @DF-RKS iter   7:  -269.51545366464939   -4.81977e-07   6.26657e-06 DIIS
   @DF-RKS iter   8:  -269.51545382754114   -1.62892e-07   1.86738e-06 DIIS
   @DF-RKS iter   9:  -269.51545384312192   -1.55808e-08   8.33228e-07 DIIS
   @DF-RKS iter  10:  -269.51545384416113   -1.03921e-09   1.79969e-07 DIIS
   @DF-RKS iter  11:  -269.51545384422468   -6.35509e-11   4.51968e-08 DIIS
   @DF-RKS iter  12:  -269.51545384422843   -3.75167e-12   1.07194e-08 DIIS
   @DF-RKS iter  13:  -269.51545384422803    3.97904e-13   3.08305e-09 DIIS

  ==> Post-Iterations <==

    Orbital Energies [Eh]
    ---------------------

    Doubly Occupied:                                                      

       1A    -19.630114     2A    -19.623050     3A    -10.635522  
       4A    -10.587396     5A    -10.541490     6A     -1.175085  
       7A     -1.142675     8A     -0.844255     9A     -0.779208  
      10A     -0.664108    11A     -0.588265    12A     -0.557980  
      13A     -0.529828    14A     -0.513252    15A     -0.507506  
      16A     -0.495254    17A     -0.459220    18A     -0.433186  
      19A     -0.415839    20A     -0.359703    21A     -0.330527  

    Virtual:                                                              

      22A     -0.003346    23A      0.009802    24A      0.012889  
      25A      0.018459    26A      0.027853    27A      0.036965  
      28A      0.042853    29A      0.051164    30A      0.062806  
      31A      0.071214    32A      0.088079    33A      0.091964  
      34A      0.101379    35A      0.110197    36A      0.122966  
      37A      0.126900    38A      0.138639    39A      0.140706  
      40A      0.146392    41A      0.151886    42A      0.169741  
      43A      0.201162    44A      0.211292    45A      0.213311  
      46A      0.216963    47A      0.221637    48A      0.243860  
      49A      0.253915    50A      0.261022    51A      0.276866  
      52A      0.288622    53A      0.300506    54A      0.321015  
      55A      0.336982    56A      0.342085    57A      0.347845  
      58A      0.352873    59A      0.362353    60A      0.405232  
      61A      0.439466    62A      0.466077    63A      0.479568  
      64A      0.491553    65A      0.542885    66A      0.581722  
      67A      0.586504    68A      0.608710    69A      0.624494  
      70A      0.669075    71A      0.687244    72A      0.692087  
      73A      0.697029    74A      0.706396    75A      0.719659  
      76A      0.741635    77A      0.764988    78A      0.768730  
      79A      0.901045    80A      0.924512    81A      0.969521  
      82A      1.025926    83A      1.047919    84A      1.077386  
      85A      1.123034    86A      1.160084    87A      1.187676  
      88A      1.236471    89A      1.254105    90A      1.270198  
      91A      1.338114    92A      1.375238    93A      1.462031  
      94A      1.467481    95A      1.491043    96A      1.495837  
      97A      1.512743    98A      1.537253    99A      1.562961  
     100A      1.584742   101A      1.593355   102A      1.606424  
     103A      1.635620   104A      1.652785   105A      1.685549  
     106A      1.724868   107A      1.734266   108A      1.779655  
     109A      1.802909   110A      1.824493   111A      1.897487  
     112A      1.958503   113A      1.963135   114A      2.043471  
     115A      2.075558   116A      2.113421   117A      2.157051  
     118A      2.174773   119A      2.246073   120A      2.261823  
     121A      2.350627   122A      2.441563   123A      2.475733  
     124A      2.491526   125A      2.519532   126A      2.529591  
     127A      2.538406   128A      2.558643   129A      2.567803  
     130A      2.608676   131A      2.617816   132A      2.690020  
     133A      2.721871   134A      2.751889   135A      2.872202  
     136A      2.915491   137A      2.940009   138A      2.977759  
     139A      2.990916   140A      3.040420   141A      3.150814  
     142A      3.201837   143A      3.251864   144A      3.327963  
     145A      3.414959   146A      3.543059   147A      3.552362  
     148A      3.778282   149A      3.818475   150A      3.836778  
     151A      3.881492   152A      3.935559   153A      3.944475  
     154A      4.077267   155A      4.195321   156A      5.158746  
     157A      5.236399   158A      5.267979   159A      5.484975  
     160A      5.701290   161A      5.812782   162A     23.937198  
     163A     23.973260   164A     24.031350   165A     50.003494  
     166A     50.077884  

    Final Occupation by Irrep:
              A 
    DOCC [    21 ]

  Energy converged.

  @DF-RKS Final Energy:  -269.51545384422803

   => Energetics <=

    Nuclear Repulsion Energy =            179.8353332510734219
    One-Electron Energy =                -722.6609254695350728
    Two-Electron Energy =                 290.8083538028263888
    DFT Exchange-Correlation Energy =     -17.4982154285927578
    Empirical Dispersion Energy =           0.0000000000000000
    VV10 Nonlocal Energy =                  0.0000000000000000
    Total Energy =                       -269.5154538442280341



Properties will be evaluated at   0.000000,   0.000000,   0.000000 [a0]

Properties computed using the SCF density matrix

  Nuclear Dipole Moment: [e a0]
     X:     3.2751      Y:     1.4151      Z:     1.4135

  Electronic Dipole Moment: [e a0]
     X:    -2.6757      Y:    -1.3932      Z:    -1.2059

  Dipole Moment: [e a0]
     X:     0.5994      Y:     0.0219      Z:     0.2076     Total:     0.6347

  Dipole Moment: [D]
     X:     1.5235      Y:     0.0556      Z:     0.5278     Total:     1.6133


*** tstop() called on localhost.localdomain at Tue Mar 19 12:48:25 2019
Module time:
	user time   =     208.51 seconds =       3.48 minutes
	system time =       3.73 seconds =       0.06 minutes
	total time  =          8 seconds =       0.13 minutes
Total time:
	user time   =     498.47 seconds =       8.31 minutes
	system time =      13.71 seconds =       0.23 minutes
	total time  =         20 seconds =       0.33 minutes

*** tstart() called on localhost.localdomain
*** at Tue Mar 19 12:48:25 2019


         ------------------------------------------------------------
                                   SCF GRAD                          
                          Rob Parrish, Justin Turney,                
                       Andy Simmonett, and Alex Sokolov              
         ------------------------------------------------------------

  ==> Geometry <==

    Molecular point group: c1
    Full point group: C1

    Geometry (in Angstrom), charge = 0, multiplicity = 1:

       Center              X                  Y                   Z               Mass       
    ------------   -----------------  -----------------  -----------------  -----------------
         C           -0.187982393654    -1.153214727303     0.096510493986    12.000000000000
         O           -1.068092259312    -0.986655796130    -0.715106047655    15.994914619560
         H            0.420147508212    -0.557654831754     2.063836547074     1.007825032070
         H           -1.360282356442    -0.687845837408     1.836336474859     1.007825032070
         H            1.164866245515     2.558750977576    -1.470605286203     1.007825032070
         C            1.243198511724     1.568048852873    -1.004307412914    12.000000000000
         H            1.059389659266     0.807156178024    -1.782147955906     1.007825032070
         H            2.271136792205     1.444073580637    -0.613827661336     1.007825032070
         O            0.347541477217     1.425337457010     0.109287835458    15.994914619560
         H           -0.564852497558     1.419158608881    -0.236212879390     1.007825032070
         C           -0.388507897032    -1.126141528180     1.588405253881    12.000000000000
         H           -0.352644089748    -2.155787838453     1.960358824638     1.007825032070
         H            0.859521971299    -1.320631754771    -0.246850249707     1.007825032070

  Nuclear repulsion =  179.835333251073422

  ==> Basis Set <==

  Basis Set: 6-311++G(D,P)
    Blend: 6-311++G(D,P)
    Number of shells: 90
    Number of basis function: 166
    Number of Cartesian functions: 171
    Spherical Harmonics?: true
    Max angular momentum: 2

  ==> DFJKGrad: Density-Fitted SCF Gradients <==

    Gradient:                    1
    J tasked:                  Yes
    K tasked:                  Yes
    wK tasked:                  No
    OpenMP threads:             32
    Integrals threads:          32
    Memory (MB):               375
    Schwarz Cutoff:          0E+00
    Fitting Condition:       1E-12

   => Auxiliary Basis Set <=

  Basis Set: (6-311++G(D,P) AUX)
    Blend: AUG-CC-PVTZ-JKFIT
    Number of shells: 262
    Number of basis function: 888
    Number of Cartesian functions: 1095
    Spherical Harmonics?: true
    Max angular momentum: 4

  ==> DFT Potential <==

   => Composite Functional: M06-2X <= 

    Hybrid M06-2X Meta-GGA XC Functional

    Y. Zhao and D. G. Truhlar,  Theor. Chem. Acc., 120, 215, 2008


    Deriv               =              1
    GGA                 =           TRUE
    Meta                =           TRUE

    Exchange Hybrid     =           TRUE
    MP2 Hybrid          =          FALSE

   => Exchange Functionals <=

    1.0000   XC_HYB_MGGA_X_M06_2X

   => Exact (HF) Exchange <=

    0.5400               HF 

   => Correlation Functionals <=

    1.0000   XC_MGGA_C_M06_2X

   => Molecular Quadrature <=

    Radial Scheme       =       TREUTLER
    Pruning Scheme      =           FLAT
    Nuclear Scheme      =       TREUTLER

    BS radius alpha     =              1
    Pruning alpha       =              1
    Radial Points       =             75
    Spherical Points    =            302
    Total Points        =         294450
    Total Blocks        =           2244
    Max Points          =            256
    Max Functions       =            166


  -Total Gradient:
     Atom            X                  Y                   Z
    ------   -----------------  -----------------  -----------------
       1        0.002451293728    -0.005435823736     0.003722061727
       2       -0.005735342070     0.003784051401    -0.005660407398
       3        0.003105023878     0.002042654917     0.002516310139
       4       -0.002916366643     0.001665813365     0.001310969943
       5        0.000298306122     0.001847278607    -0.002816798866
       6       -0.001781218939     0.002522837560    -0.004845351390
       7       -0.000199910387    -0.002173973188    -0.005593361651
       8        0.010751679216    -0.001102460435     0.003111210971
       9        0.002625333299    -0.003882308154     0.014375759385
      10       -0.013030656235    -0.000071692755    -0.004390038175
      11        0.000319736852    -0.000368552737     0.000364593980
      12       -0.000358965862    -0.000571852713    -0.000484954578
      13        0.004316019367     0.001813915395    -0.001550412729


*** tstop() called on localhost.localdomain at Tue Mar 19 12:48:29 2019
Module time:
	user time   =      79.16 seconds =       1.32 minutes
	system time =       3.96 seconds =       0.07 minutes
	total time  =          4 seconds =       0.07 minutes
Total time:
	user time   =     577.69 seconds =       9.63 minutes
	system time =      17.68 seconds =       0.29 minutes
	total time  =         24 seconds =       0.40 minutes

			-----------------------------------------
			 OPTKING 2.0: for geometry optimizations 
			  - R.A. King,  Bethel University        
			-----------------------------------------

	Previous internal coordinate definitions found.
	---Fragment 1 Geometry and Gradient---
	 C          -0.3552352418       -2.1792600070        0.1823784026
	 O          -2.0184018548       -1.8645092421       -1.3513545860
	 H           0.7939637259       -1.0538149087        3.9000858570
	 H          -2.5705611171       -1.2998402543        3.4701730253
	 H           2.2012781855        4.8353385899       -2.7790412405
	 C           2.3493047160        2.9631828949       -1.8978659636
	 H           2.0019563240        1.5253041229       -3.3677715649
	 H           4.2918265476        2.7289035831       -1.1599661727
	 O           0.6567582118        2.6934974407        0.2065240787
	 H          -1.0674165259        2.6818211099       -0.4463776511
	 C          -0.7341735259       -2.1280990751        3.0016509179
	 H          -0.6664007520       -4.0738486153        3.7045413008
	 H           1.6242611310       -2.4956323389       -0.4664793678
	             0.0024512937       -0.0054358237        0.0037220617
	            -0.0057353421        0.0037840514       -0.0056604074
	             0.0031050239        0.0020426549        0.0025163101
	            -0.0029163666        0.0016658134        0.0013109699
	             0.0002983061        0.0018472786       -0.0028167989
	            -0.0017812189        0.0025228376       -0.0048453514
	            -0.0001999104       -0.0021739732       -0.0055933617
	             0.0107516792       -0.0011024604        0.0031112110
	             0.0026253333       -0.0038823082        0.0143757594
	            -0.0130306562       -0.0000716928       -0.0043900382
	             0.0003197369       -0.0003685527        0.0003645940
	            -0.0003589659       -0.0005718527       -0.0004849546
	             0.0043160194        0.0018139154       -0.0015504127

	---Fragment 1 Intrafragment Coordinates---
	 - Coordinate -           - BOHR/RAD -       - ANG/DEG -
	 R(1,2)           =         2.284191	       1.208742
	 R(1,11)          =         2.845085	       1.505554
	 R(1,13)          =         2.107015	       1.114985
	 R(2,10)          =         4.732069	       2.504103
	 R(3,11)          =         2.072794	       1.096875
	 R(4,11)          =         2.068295	       1.094495
	 R(5,6)           =         2.074451	       1.097752
	 R(6,7)           =         2.085370	       1.103530
	 R(6,8)           =         2.091118	       1.106572
	 R(6,9)           =         2.714019	       1.436197
	 R(9,10)          =         1.843691	       0.975639
	 R(11,12)         =         2.069925	       1.095357
	 B(1,2,10)        =         1.427959	      81.816011
	 B(1,11,3)        =         1.918390	     109.915630
	 B(1,11,4)        =         1.928291	     110.482919
	 B(1,11,12)       =         1.891493	     108.374561
	 B(2,1,11)        =         2.172329	     124.465310
	 B(2,1,13)        =         2.092051	     119.865698
	 B(2,10,9)        =         1.835629	     105.173790
	 B(3,11,4)        =         1.927130	     110.416394
	 B(3,11,12)       =         1.892163	     108.412940
	 B(4,11,12)       =         1.905596	     109.182606
	 B(5,6,7)         =         1.887014	     108.117916
	 B(5,6,8)         =         1.893665	     108.499000
	 B(5,6,9)         =         1.954695	     111.995772
	 B(6,9,10)        =         1.885202	     108.014110
	 B(7,6,8)         =         1.903085	     109.038729
	 B(7,6,9)         =         1.954274	     111.971640
	 B(8,6,9)         =         1.869805	     107.131908
	 B(11,1,13)       =         2.018600	     115.657266
	 D(1,2,10,9)      =         0.398189	      22.814556
	 D(2,1,11,3)      =        -2.384938	    -136.646870
	 D(2,1,11,4)      =        -0.253881	     -14.546292
	 D(2,1,11,12)     =         1.833229	     105.036273
	 D(2,10,9,6)      =         1.561605	      89.473389
	 D(3,11,1,13)     =         0.734801	      42.101002
	 D(4,11,1,13)     =         2.865858	     164.201580
	 D(5,6,9,10)      =         1.190547	      68.213338
	 D(7,6,9,10)      =        -0.932521	     -53.429531
	 D(8,6,9,10)      =        -3.018222	    -172.931368
	 D(10,2,1,11)     =         1.448617	      82.999612
	 D(10,2,1,13)     =        -1.670260	     -95.698863
	 D(12,11,1,13)    =        -1.330218	     -76.215856
	 R(1,6)           =         6.171440	       3.265785
	 R(9,11)          =         5.744146	       3.039671

	Current energy   :      -269.5154538442

	Energy change for the previous step:
		Projected    :        -0.0005168214
		Actual       :        -0.0001808954

	Performing BFGS update.
	Previous computed or guess Hessian on step 1.
	Steps to be used in Hessian update: 1
	Taking RFO optimization step.
	Going to follow RFO solution 1.
	Using RFO vector 1.
	Norm of target step-size    0.21453
	Projected energy change by RFO approximation:        -0.0029726834

	Back-transformation to cartesian coordinates...
	Could not converge backtransformation.
	Using first guess instead.

	--- Internal Coordinate Step in ANG or DEG, aJ/ANG or AJ/DEG ---
	 ---------------------------------------------------------------------------
	   Coordinate                Previous        Force       Change         New 
	   ----------                --------       ------       ------       ------
	    1 R(1,2)          =      1.208742    -0.079202    -0.003173     1.205568
	    2 R(1,11)         =      1.505554    -0.038021    -0.005393     1.500161
	    3 R(1,13)         =      1.114985    -0.035149    -0.003420     1.111565
	    4 R(2,10)         =      2.504103     0.016912     0.026954     2.531057
	    5 R(3,11)         =      1.096875    -0.036644    -0.004363     1.092512
	    6 R(4,11)         =      1.094495    -0.029252    -0.003272     1.091223
	    7 R(5,6)          =      1.097752    -0.023334    -0.000853     1.096900
	    8 R(6,7)          =      1.103530    -0.045249    -0.004005     1.099525
	    9 R(6,8)          =      1.106572    -0.092462    -0.009194     1.097378
	   10 R(6,9)          =      1.436197    -0.111020    -0.008882     1.427316
	   11 R(9,10)         =      0.975639    -0.102756    -0.006105     0.969534
	   12 R(11,12)        =      1.095357    -0.002937    -0.000308     1.095049
	   13 B(1,2,10)       =     81.816011    -0.000006    -0.812711    81.003300
	   14 B(1,11,3)       =    109.915630    -0.000077    -0.218247   109.697383
	   15 B(1,11,4)       =    110.482919    -0.000054    -0.176122   110.306796
	   16 B(1,11,12)      =    108.374561     0.000089     0.297720   108.672281
	   17 B(2,1,11)       =    124.465310    -0.000046    -0.182466   124.282845
	   18 B(2,1,13)       =    119.865698     0.000046     0.220469   120.086167
	   19 B(2,10,9)       =    105.173790     0.000329     0.457386   105.631175
	   20 B(3,11,4)       =    110.416394     0.000048     0.083093   110.499487
	   21 B(3,11,12)      =    108.412940    -0.000005    -0.035424   108.377517
	   22 B(4,11,12)      =    109.182606     0.000001     0.057405   109.240011
	   23 B(5,6,7)        =    108.117916     0.000223     0.603289   108.721206
	   24 B(5,6,8)        =    108.499000     0.000072     0.075220   108.574220
	   25 B(5,6,9)        =    111.995772    -0.000101    -0.070386   111.925385
	   26 B(6,9,10)       =    108.014110    -0.000183    -0.694022   107.320088
	   27 B(7,6,8)        =    109.038729     0.000068     0.226267   109.264996
	   28 B(7,6,9)        =    111.971640    -0.000178    -0.593622   111.378018
	   29 B(8,6,9)        =    107.131908    -0.000077    -0.230062   106.901846
	   30 B(11,1,13)      =    115.657266     0.000002    -0.026978   115.630288
	   31 D(1,2,10,9)     =     22.814556     0.000015     6.533413    29.347969
	   32 D(2,1,11,3)     =   -136.646870    -0.000003     1.356235  -135.290634
	   33 D(2,1,11,4)     =    -14.546292    -0.000009     1.199730   -13.346562
	   34 D(2,1,11,12)    =    105.036273    -0.000003     1.348903   106.385176
	   35 D(2,10,9,6)     =     89.473389     0.000008    -3.767113    85.706276
	   36 D(3,11,1,13)    =     42.101002     0.000019     2.913631    45.014633
	   37 D(4,11,1,13)    =    164.201580     0.000012     2.757126   166.958706
	   38 D(5,6,9,10)     =     68.213338     0.000004    -2.107902    66.105436
	   39 D(7,6,9,10)     =    -53.429531    -0.000016    -2.410894   -55.840424
	   40 D(8,6,9,10)     =   -172.931368    -0.000000    -2.200911  -175.132279
	   41 D(10,2,1,11)    =     82.999612    -0.000009    -1.140027    81.859585
	   42 D(10,2,1,13)    =    -95.698863    -0.000031    -2.759637   -98.458501
	   43 D(12,11,1,13)   =    -76.215856     0.000018     2.906299   -73.309556
	   44 R(1,6)          =      3.265785    -0.003124     0.012600     3.278385
	   45 R(9,11)         =      3.039671     0.014915     0.046115     3.085786
	 ---------------------------------------------------------------------------
	Successfully symmetrized geometry.

  ==> Convergence Check <==

  Measures of convergence in internal coordinates in au.
  Criteria marked as inactive (o), active & met (*), and active & unmet ( ).
  ---------------------------------------------------------------------------------------------
   Step     Total Energy     Delta E     MAX Force     RMS Force      MAX Disp      RMS Disp   
  ---------------------------------------------------------------------------------------------
    Convergence Criteria    1.00e-06 *    3.00e-04 *             o    1.20e-03 *             o
  ---------------------------------------------------------------------------------------------
      2    -269.51545384   -1.81e-04      1.35e-02      4.02e-03 o    1.14e-01      3.21e-02 o  ~
  ---------------------------------------------------------------------------------------------

	Writing optimization data to binary file.
	Structure for next step:
	Cartesian Geometry (in Angstrom)
	    C    -0.1622482551  -1.1548876578   0.1079470967
	    O    -1.0064739733  -0.9651440900  -0.7315022998
	    H     0.3615199304  -0.5724555904   2.0917130348
	    H    -1.4024193831  -0.7108156555   1.7938492771
	    H     1.0942232628   2.5553767680  -1.5161731663
	    C     1.2377295618   1.5814450286  -1.0323843987
	    H     1.0153477344   0.7890385380  -1.7614890098
	    H     2.2854011190   1.4990880667  -0.7164104670
	    O     0.4382144905   1.4469043794   0.1423088430
	    H    -0.4895493795   1.4407121398  -0.1391386028
	    C    -0.4216957966  -1.1415309138   1.5854424053
	    H    -0.3939896774  -2.1717538551   1.9555842087
	    H     0.8873810377  -1.3613838168  -0.1940689842
			--------------------------
			 OPTKING Finished Execution 
			--------------------------

    Structure for next step:
    Molecular point group: c1
    Full point group: C1

    Geometry (in Angstrom), charge = 0, multiplicity = 1:

    C           -0.190391401322    -1.162846961803     0.107504316027
    O           -1.034617119579    -0.973103394029    -0.731945080484
    H            0.333376784152    -0.580414894472     2.091270254074
    H           -1.430562529359    -0.718774959488     1.793406496401
    H            1.066080116567     2.547417463948    -1.516615947027
    C            1.209586415566     1.573485724593    -1.032827179363
    H            0.987204588193     0.781079233935    -1.761931790502
    H            2.257257972726     1.491128762637    -0.716853247727
    O            0.410071344209     1.438945075354     0.141866062310
    H           -0.517692525719     1.432752835802    -0.139581383531
    C           -0.449838942817    -1.149490217843     1.584999624635
    H           -0.422132823671    -2.179713159148     1.955141428021
    H            0.859237891437    -1.369343120810    -0.194511764912

gradient() will perform analytic gradient computation.

*** tstart() called on localhost.localdomain
*** at Tue Mar 19 12:48:29 2019

   => Loading Basis Set <=

    Name: 6-311++G(D,P)
    Role: ORBITAL
    Keyword: BASIS
    atoms 1, 6, 11            entry C          line   119 file /root/psi4conda/share/psi4/basis/6-311ppg_d_p_.gbs 
    atoms 2, 9                entry O          line   161 file /root/psi4conda/share/psi4/basis/6-311ppg_d_p_.gbs 
    atoms 3-5, 7-8, 10, 12-13 entry H          line    42 file /root/psi4conda/share/psi4/basis/6-311ppg_d_p_.gbs 


         ---------------------------------------------------------
                                   SCF
            by Justin Turney, Rob Parrish, Andy Simmonett
                             and Daniel Smith
                              RKS Reference
                       32 Threads,    500 MiB Core
         ---------------------------------------------------------

  ==> Geometry <==

    Molecular point group: c1
    Full point group: C1

    Geometry (in Angstrom), charge = 0, multiplicity = 1:

       Center              X                  Y                   Z               Mass       
    ------------   -----------------  -----------------  -----------------  -----------------
         C           -0.190391401322    -1.162846961803     0.107504316027    12.000000000000
         O           -1.034617119579    -0.973103394029    -0.731945080484    15.994914619560
         H            0.333376784152    -0.580414894472     2.091270254074     1.007825032070
         H           -1.430562529359    -0.718774959488     1.793406496401     1.007825032070
         H            1.066080116567     2.547417463948    -1.516615947027     1.007825032070
         C            1.209586415566     1.573485724593    -1.032827179363    12.000000000000
         H            0.987204588193     0.781079233935    -1.761931790502     1.007825032070
         H            2.257257972726     1.491128762637    -0.716853247727     1.007825032070
         O            0.410071344209     1.438945075354     0.141866062310    15.994914619560
         H           -0.517692525719     1.432752835802    -0.139581383531     1.007825032070
         C           -0.449838942817    -1.149490217843     1.584999624635    12.000000000000
         H           -0.422132823671    -2.179713159148     1.955141428021     1.007825032070
         H            0.859237891437    -1.369343120810    -0.194511764912     1.007825032070

  Running in c1 symmetry.

  Rotational constants: A =      0.25345  B =      0.08535  C =      0.07178 [cm^-1]
  Rotational constants: A =   7598.37088  B =   2558.87236  C =   2152.04829 [MHz]
  Nuclear repulsion =  179.875096864150976

  Charge       = 0
  Multiplicity = 1
  Electrons    = 42
  Nalpha       = 21
  Nbeta        = 21

  ==> Algorithm <==

  SCF Algorithm Type is DF.
  DIIS enabled.
  MOM disabled.
  Fractional occupation disabled.
  Guess Type is READ.
  Energy threshold   = 1.00e-08
  Density threshold  = 1.00e-08
  Integral threshold = 0.00e+00

  ==> Primary Basis <==

  Basis Set: 6-311++G(D,P)
    Blend: 6-311++G(D,P)
    Number of shells: 90
    Number of basis function: 166
    Number of Cartesian functions: 171
    Spherical Harmonics?: true
    Max angular momentum: 2

  ==> DFT Potential <==

   => Composite Functional: M06-2X <= 

    Hybrid M06-2X Meta-GGA XC Functional

    Y. Zhao and D. G. Truhlar,  Theor. Chem. Acc., 120, 215, 2008


    Deriv               =              1
    GGA                 =           TRUE
    Meta                =           TRUE

    Exchange Hybrid     =           TRUE
    MP2 Hybrid          =          FALSE

   => Exchange Functionals <=

    1.0000   XC_HYB_MGGA_X_M06_2X

   => Exact (HF) Exchange <=

    0.5400               HF 

   => Correlation Functionals <=

    1.0000   XC_MGGA_C_M06_2X

   => Molecular Quadrature <=

    Radial Scheme       =       TREUTLER
    Pruning Scheme      =           FLAT
    Nuclear Scheme      =       TREUTLER

    BS radius alpha     =              1
    Pruning alpha       =              1
    Radial Points       =             75
    Spherical Points    =            302
    Total Points        =         294450
    Total Blocks        =           2229
    Max Points          =            256
    Max Functions       =            166

   => Loading Basis Set <=

    Name: (6-311++G(D,P) AUX)
    Role: JKFIT
    Keyword: DF_BASIS_SCF
    atoms 1, 6, 11            entry C          line   162 file /root/psi4conda/share/psi4/basis/aug-cc-pvtz-jkfit.gbs 
    atoms 2, 9                entry O          line   286 file /root/psi4conda/share/psi4/basis/aug-cc-pvtz-jkfit.gbs 
    atoms 3-5, 7-8, 10, 12-13 entry H          line    70 file /root/psi4conda/share/psi4/basis/aug-cc-pvtz-jkfit.gbs 

  Reading orbitals from file 180, no projection.

  ==> Pre-Iterations <==

   -------------------------------------------------------
    Irrep   Nso     Nmo     Nalpha   Nbeta   Ndocc  Nsocc
   -------------------------------------------------------
     A        166     166       0       0       0       0
   -------------------------------------------------------
    Total     166     166      21      21      21       0
   -------------------------------------------------------

  ==> Integral Setup <==

  DFHelper Memory: AOs need 0.234 [GiB]; user supplied 0.366 [GiB]. Using in-core AOs.

  ==> MemDFJK: Density-Fitted J/K Matrices <==

    J tasked:                   Yes
    K tasked:                   Yes
    wK tasked:                   No
    OpenMP threads:              32
    Memory (MB):                375
    Algorithm:                 Core
    Schwarz Cutoff:           1E-12
    Mask sparsity (%):       3.8177
    Fitting Condition:        1E-12

   => Auxiliary Basis Set <=

  Basis Set: (6-311++G(D,P) AUX)
    Blend: AUG-CC-PVTZ-JKFIT
    Number of shells: 262
    Number of basis function: 888
    Number of Cartesian functions: 1095
    Spherical Harmonics?: true
    Max angular momentum: 4

  Minimum eigenvalue in the overlap matrix is 6.7695650231E-05.
  Using Symmetric Orthogonalization.

  SCF Guess: Orbitals guess was supplied from a previous computation.

  ==> Iterations <==

                           Total Energy        Delta E     RMS |[F,P]|

   @DF-RKS iter   0:  -269.51990653441203   -2.69520e+02   4.28158e-03 
   @DF-RKS iter   1:  -269.51628423725492    3.62230e-03   5.11140e-04 
   @DF-RKS iter   2:  -269.51649393446019   -2.09697e-04   3.25608e-04 DIIS
   @DF-RKS iter   3:  -269.51653862854283   -4.46941e-05   1.44402e-04 DIIS
   @DF-RKS iter   4:  -269.51655997045543   -2.13419e-05   4.12231e-05 DIIS
   @DF-RKS iter   5:  -269.51656085177882   -8.81323e-07   1.28948e-05 DIIS
   @DF-RKS iter   6:  -269.51656096903031   -1.17251e-07   4.58968e-06 DIIS
   @DF-RKS iter   7:  -269.51656098950980   -2.04795e-08   1.41143e-06 DIIS
   @DF-RKS iter   8:  -269.51656099593015   -6.42035e-09   3.83485e-07 DIIS
   @DF-RKS iter   9:  -269.51656099679286   -8.62713e-10   1.43170e-07 DIIS
   @DF-RKS iter  10:  -269.51656099690291   -1.10049e-10   5.29266e-08 DIIS
   @DF-RKS iter  11:  -269.51656099690888   -5.96856e-12   2.11752e-08 DIIS
   @DF-RKS iter  12:  -269.51656099690939   -5.11591e-13   3.13156e-09 DIIS

  ==> Post-Iterations <==

    Orbital Energies [Eh]
    ---------------------

    Doubly Occupied:                                                      

       1A    -19.628786     2A    -19.624147     3A    -10.635194  
       4A    -10.583599     5A    -10.541375     6A     -1.178092  
       7A     -1.146051     8A     -0.847050     9A     -0.778858  
      10A     -0.665627    11A     -0.589432    12A     -0.560417  
      13A     -0.531226    14A     -0.515200    15A     -0.508646  
      16A     -0.497268    17A     -0.461227    18A     -0.434057  
      19A     -0.415770    20A     -0.359064    21A     -0.331681  

    Virtual:                                                              

      22A     -0.002789    23A      0.010002    24A      0.012781  
      25A      0.018162    26A      0.028585    27A      0.036790  
      28A      0.042821    29A      0.051299    30A      0.063452  
      31A      0.072436    32A      0.086415    33A      0.091927  
      34A      0.101791    35A      0.109687    36A      0.124328  
      37A      0.127015    38A      0.138960    39A      0.141311  
      40A      0.146468    41A      0.151187    42A      0.170243  
      43A      0.202839    44A      0.213008    45A      0.213437  
      46A      0.218212    47A      0.220627    48A      0.244902  
      49A      0.255068    50A      0.260112    51A      0.276042  
      52A      0.291083    53A      0.298328    54A      0.319396  
      55A      0.336638    56A      0.344275    57A      0.349013  
      58A      0.355110    59A      0.365570    60A      0.402271  
      61A      0.437146    62A      0.467094    63A      0.480312  
      64A      0.491769    65A      0.542364    66A      0.578806  
      67A      0.588581    68A      0.606832    69A      0.628665  
      70A      0.669576    71A      0.689463    72A      0.693846  
      73A      0.697992    74A      0.705774    75A      0.721134  
      76A      0.742863    77A      0.764388    78A      0.768711  
      79A      0.903012    80A      0.922500    81A      0.970433  
      82A      1.028261    83A      1.046038    84A      1.083871  
      85A      1.125199    86A      1.155310    87A      1.187578  
      88A      1.230594    89A      1.256076    90A      1.262671  
      91A      1.340293    92A      1.370128    93A      1.458451  
      94A      1.470960    95A      1.493187    96A      1.496433  
      97A      1.512577    98A      1.541980    99A      1.560988  
     100A      1.585620   101A      1.594564   102A      1.608982  
     103A      1.635483   104A      1.649235   105A      1.680575  
     106A      1.728218   107A      1.743360   108A      1.778573  
     109A      1.803730   110A      1.830648   111A      1.891038  
     112A      1.954412   113A      1.965567   114A      2.045690  
     115A      2.079396   116A      2.118326   117A      2.163458  
     118A      2.176579   119A      2.250241   120A      2.267619  
     121A      2.353207   122A      2.453098   123A      2.473063  
     124A      2.494843   125A      2.529327   126A      2.540062  
     127A      2.543056   128A      2.556222   129A      2.563062  
     130A      2.604502   131A      2.617004   132A      2.693505  
     133A      2.724812   134A      2.754122   135A      2.873010  
     136A      2.917497   137A      2.944035   138A      2.979528  
     139A      2.994558   140A      3.043198   141A      3.156066  
     142A      3.204908   143A      3.256990   144A      3.337486  
     145A      3.417460   146A      3.551270   147A      3.553999  
     148A      3.787294   149A      3.834723   150A      3.841177  
     151A      3.888204   152A      3.937805   153A      3.950507  
     154A      4.083344   155A      4.199255   156A      5.158971  
     157A      5.232610   158A      5.268407   159A      5.494335  
     160A      5.715878   161A      5.816326   162A     23.950183  
     163A     23.986470   164A     24.039268   165A     50.006181  
     166A     50.079034  

    Final Occupation by Irrep:
              A 
    DOCC [    21 ]

  Energy converged.

  @DF-RKS Final Energy:  -269.51656099690939

   => Energetics <=

    Nuclear Repulsion Energy =            179.8750968641509758
    One-Electron Energy =                -722.6963842757348857
    Two-Electron Energy =                 290.8120584362523573
    DFT Exchange-Correlation Energy =     -17.5073320215778772
    Empirical Dispersion Energy =           0.0000000000000000
    VV10 Nonlocal Energy =                  0.0000000000000000
    Total Energy =                       -269.5165609969093907



Properties will be evaluated at   0.000000,   0.000000,   0.000000 [a0]

Properties computed using the SCF density matrix

  Nuclear Dipole Moment: [e a0]
     X:     2.9339      Y:     1.3186      Z:     1.4130

  Electronic Dipole Moment: [e a0]
     X:    -2.4297      Y:    -1.3462      Z:    -1.1633

  Dipole Moment: [e a0]
     X:     0.5041      Y:    -0.0276      Z:     0.2498     Total:     0.5633

  Dipole Moment: [D]
     X:     1.2814      Y:    -0.0702      Z:     0.6348     Total:     1.4317


*** tstop() called on localhost.localdomain at Tue Mar 19 12:48:36 2019
Module time:
	user time   =     184.92 seconds =       3.08 minutes
	system time =       3.57 seconds =       0.06 minutes
	total time  =          7 seconds =       0.12 minutes
Total time:
	user time   =     764.45 seconds =      12.74 minutes
	system time =      21.27 seconds =       0.35 minutes
	total time  =         31 seconds =       0.52 minutes

*** tstart() called on localhost.localdomain
*** at Tue Mar 19 12:48:36 2019


         ------------------------------------------------------------
                                   SCF GRAD                          
                          Rob Parrish, Justin Turney,                
                       Andy Simmonett, and Alex Sokolov              
         ------------------------------------------------------------

  ==> Geometry <==

    Molecular point group: c1
    Full point group: C1

    Geometry (in Angstrom), charge = 0, multiplicity = 1:

       Center              X                  Y                   Z               Mass       
    ------------   -----------------  -----------------  -----------------  -----------------
         C           -0.190391401322    -1.162846961803     0.107504316027    12.000000000000
         O           -1.034617119579    -0.973103394029    -0.731945080484    15.994914619560
         H            0.333376784152    -0.580414894472     2.091270254074     1.007825032070
         H           -1.430562529359    -0.718774959488     1.793406496401     1.007825032070
         H            1.066080116567     2.547417463948    -1.516615947027     1.007825032070
         C            1.209586415566     1.573485724593    -1.032827179363    12.000000000000
         H            0.987204588193     0.781079233935    -1.761931790502     1.007825032070
         H            2.257257972726     1.491128762637    -0.716853247727     1.007825032070
         O            0.410071344209     1.438945075354     0.141866062310    15.994914619560
         H           -0.517692525719     1.432752835802    -0.139581383531     1.007825032070
         C           -0.449838942817    -1.149490217843     1.584999624635    12.000000000000
         H           -0.422132823671    -2.179713159148     1.955141428021     1.007825032070
         H            0.859237891437    -1.369343120810    -0.194511764912     1.007825032070

  Nuclear repulsion =  179.875096864150976

  ==> Basis Set <==

  Basis Set: 6-311++G(D,P)
    Blend: 6-311++G(D,P)
    Number of shells: 90
    Number of basis function: 166
    Number of Cartesian functions: 171
    Spherical Harmonics?: true
    Max angular momentum: 2

  ==> DFJKGrad: Density-Fitted SCF Gradients <==

    Gradient:                    1
    J tasked:                  Yes
    K tasked:                  Yes
    wK tasked:                  No
    OpenMP threads:             32
    Integrals threads:          32
    Memory (MB):               375
    Schwarz Cutoff:          0E+00
    Fitting Condition:       1E-12

   => Auxiliary Basis Set <=

  Basis Set: (6-311++G(D,P) AUX)
    Blend: AUG-CC-PVTZ-JKFIT
    Number of shells: 262
    Number of basis function: 888
    Number of Cartesian functions: 1095
    Spherical Harmonics?: true
    Max angular momentum: 4

  ==> DFT Potential <==

   => Composite Functional: M06-2X <= 

    Hybrid M06-2X Meta-GGA XC Functional

    Y. Zhao and D. G. Truhlar,  Theor. Chem. Acc., 120, 215, 2008


    Deriv               =              1
    GGA                 =           TRUE
    Meta                =           TRUE

    Exchange Hybrid     =           TRUE
    MP2 Hybrid          =          FALSE

   => Exchange Functionals <=

    1.0000   XC_HYB_MGGA_X_M06_2X

   => Exact (HF) Exchange <=

    0.5400               HF 

   => Correlation Functionals <=

    1.0000   XC_MGGA_C_M06_2X

   => Molecular Quadrature <=

    Radial Scheme       =       TREUTLER
    Pruning Scheme      =           FLAT
    Nuclear Scheme      =       TREUTLER

    BS radius alpha     =              1
    Pruning alpha       =              1
    Radial Points       =             75
    Spherical Points    =            302
    Total Points        =         294450
    Total Blocks        =           2229
    Max Points          =            256
    Max Functions       =            166


  -Total Gradient:
     Atom            X                  Y                   Z
    ------   -----------------  -----------------  -----------------
       1        0.000510984994    -0.001152270167     0.001774301861
       2       -0.002089736835     0.001401446850    -0.001423941365
[...]
	system time =       6.53 seconds =       0.11 minutes
	total time  =          8 seconds =       0.13 minutes
Total time:
	user time   =    3525.76 seconds =      58.76 minutes
	system time =     139.72 seconds =       2.33 minutes
	total time  =        151 seconds =       2.52 minutes

*** tstart() called on localhost.localdomain
*** at Tue Mar 19 12:50:36 2019


         ------------------------------------------------------------
                                   SCF GRAD                          
                          Rob Parrish, Justin Turney,                
                       Andy Simmonett, and Alex Sokolov              
         ------------------------------------------------------------

  ==> Geometry <==

    Molecular point group: c1
    Full point group: C1

    Geometry (in Angstrom), charge = 0, multiplicity = 1:

       Center              X                  Y                   Z               Mass       
    ------------   -----------------  -----------------  -----------------  -----------------
         C           -0.233353473910    -1.183674784216     0.105710001475    12.000000000000
         O           -1.048467305684    -0.918669169640    -0.739587882905    15.994914619560
         H            0.093427510055    -0.460494443849     2.060614843167     1.007825032070
         H           -1.574417860831    -1.044734673803     1.767060246629     1.007825032070
         H            1.053595306496     2.477980776391    -1.591681658725     1.007825032070
         C            1.214812693482     1.537120649801    -1.057192039484    12.000000000000
         H            0.919798143911     0.704157909405    -1.703606573878     1.007825032070
         H            2.275215847661     1.450322859726    -0.823342144762     1.007825032070
         O            0.515751359939     1.508584572923     0.176706434722    15.994914619560
         H           -0.425847892879     1.517003492725    -0.016414945090     1.007825032070
         C           -0.517805083271    -1.226950097951     1.576450364207    12.000000000000
         H           -0.220037796605    -2.196527640677     1.983557547172     1.007825032070
         H            0.812205014183    -1.409428571824    -0.184241051608     1.007825032070

  Nuclear repulsion =  178.849726603515222

  ==> Basis Set <==

  Basis Set: 6-311++G(D,P)
    Blend: 6-311++G(D,P)
    Number of shells: 90
    Number of basis function: 166
    Number of Cartesian functions: 171
    Spherical Harmonics?: true
    Max angular momentum: 2

  ==> DFJKGrad: Density-Fitted SCF Gradients <==

    Gradient:                    1
    J tasked:                  Yes
    K tasked:                  Yes
    wK tasked:                  No
    OpenMP threads:             32
    Integrals threads:          32
    Memory (MB):               375
    Schwarz Cutoff:          0E+00
    Fitting Condition:       1E-12

   => Auxiliary Basis Set <=

  Basis Set: (6-311++G(D,P) AUX)
    Blend: AUG-CC-PVTZ-JKFIT
    Number of shells: 262
    Number of basis function: 888
    Number of Cartesian functions: 1095
    Spherical Harmonics?: true
    Max angular momentum: 4

  ==> DFT Potential <==

   => Composite Functional: M06-2X <= 

    Hybrid M06-2X Meta-GGA XC Functional

    Y. Zhao and D. G. Truhlar,  Theor. Chem. Acc., 120, 215, 2008


    Deriv               =              1
    GGA                 =           TRUE
    Meta                =           TRUE

    Exchange Hybrid     =           TRUE
    MP2 Hybrid          =          FALSE

   => Exchange Functionals <=

    1.0000   XC_HYB_MGGA_X_M06_2X

   => Exact (HF) Exchange <=

    0.5400               HF 

   => Correlation Functionals <=

    1.0000   XC_MGGA_C_M06_2X

   => Molecular Quadrature <=

    Radial Scheme       =       TREUTLER
    Pruning Scheme      =           FLAT
    Nuclear Scheme      =       TREUTLER

    BS radius alpha     =              1
    Pruning alpha       =              1
    Radial Points       =             75
    Spherical Points    =            302
    Total Points        =         294450
    Total Blocks        =           2245
    Max Points          =            256
    Max Functions       =            166


  -Total Gradient:
     Atom            X                  Y                   Z
    ------   -----------------  -----------------  -----------------
       1        0.000045509356     0.000033434311    -0.000005761583
       2        0.000013582020     0.000018208420    -0.000021925608
       3       -0.000038145154     0.000003848130    -0.000010681339
       4       -0.000001247367     0.000000517873    -0.000016785299
       5       -0.000000532599     0.000005254806     0.000018898150
       6        0.000040463573    -0.000018027919    -0.000040639317
       7        0.000007529907     0.000036745434     0.000019353964
       8       -0.000024101513     0.000024120567     0.000017407531
       9       -0.000047400695    -0.000047330259     0.000023742196
      10       -0.000003692339     0.000046460515     0.000010053185
      11        0.000040667334     0.000012749656    -0.000008532855
      12       -0.000016906355     0.000024549154    -0.000010730232
      13       -0.000012711322    -0.000009138611    -0.000008623745


*** tstop() called on localhost.localdomain at Tue Mar 19 12:50:40 2019
Module time:
	user time   =      94.16 seconds =       1.57 minutes
	system time =       4.73 seconds =       0.08 minutes
	total time  =          4 seconds =       0.07 minutes
Total time:
	user time   =    3619.99 seconds =      60.33 minutes
	system time =     144.46 seconds =       2.41 minutes
	total time  =        155 seconds =       2.58 minutes

			-----------------------------------------
			 OPTKING 2.0: for geometry optimizations 
			  - R.A. King,  Bethel University        
			-----------------------------------------

	Previous internal coordinate definitions found.
	---Fragment 1 Geometry and Gradient---
	 C          -0.4409741578       -2.2368211726        0.1997629523
	 O          -1.9813160670       -1.7360331373       -1.3976185499
	 H           0.1765524073       -0.8702083846        3.8939977189
	 H          -2.9752185757       -1.9742624150        3.3392599264
	 H           1.9910065842        4.6827050299       -3.0078424257
	 C           2.2956632934        2.9047370613       -1.9978034245
	 H           1.7381665895        1.3306656031       -3.2193498628
	 H           4.2995348453        2.7407130091       -1.5558911673
	 O           0.9746288229        2.8508116911        0.3339267675
	 H          -0.8047358918        2.8667211439       -0.0310197507
	 C          -0.9785097976       -2.3185996638        2.9790594504
	 H          -0.4158111745       -4.1508356842        3.7483805330
	 H           1.5348450406       -2.6634340046       -0.3481651300
	             0.0000455094        0.0000334343       -0.0000057616
	             0.0000135820        0.0000182084       -0.0000219256
	            -0.0000381452        0.0000038481       -0.0000106813
	            -0.0000012474        0.0000005179       -0.0000167853
	            -0.0000005326        0.0000052548        0.0000188982
	             0.0000404636       -0.0000180279       -0.0000406393
	             0.0000075299        0.0000367454        0.0000193540
	            -0.0000241015        0.0000241206        0.0000174075
	            -0.0000474007       -0.0000473303        0.0000237422
	            -0.0000036923        0.0000464605        0.0000100532
	             0.0000406673        0.0000127497       -0.0000085329
	            -0.0000169064        0.0000245492       -0.0000107302
	            -0.0000127113       -0.0000091386       -0.0000086237

	---Fragment 1 Intrafragment Coordinates---
	 - Coordinate -           - BOHR/RAD -       - ANG/DEG -
	 R(1,2)           =         2.274878	       1.203814
	 R(1,11)          =         2.831982	       1.498620
	 R(1,13)          =         2.094298	       1.108255
	 R(2,10)          =         4.943408	       2.615939
	 R(3,11)          =         2.066184	       1.093378
	 R(4,11)          =         2.057950	       1.089020
	 R(5,6)           =         2.067405	       1.094024
	 R(6,7)           =         2.068980	       1.094857
	 R(6,8)           =         2.058565	       1.089346
	 R(6,9)           =         2.680486	       1.418452
	 R(9,10)          =         1.816474	       0.961237
	 R(11,12)         =         2.065326	       1.092924
	 B(1,2,10)        =         1.419917	      81.355223
	 B(1,11,3)        =         1.884124	     107.952330
	 B(1,11,4)        =         1.929544	     110.554703
	 B(1,11,12)       =         1.917148	     109.844477
	 B(2,1,11)        =         2.173602	     124.538199
	 B(2,1,13)        =         2.094321	     119.995738
	 B(2,10,9)        =         1.855147	     106.292066
	 B(3,11,4)        =         1.925805	     110.340520
	 B(3,11,12)       =         1.880346	     107.735906
	 B(4,11,12)       =         1.925788	     110.339509
	 B(5,6,7)         =         1.903003	     109.034032
	 B(5,6,8)         =         1.893201	     108.472428
	 B(5,6,9)         =         1.949445	     111.694953
	 B(6,9,10)        =         1.883698	     107.927922
	 B(7,6,8)         =         1.905426	     109.172885
	 B(7,6,9)         =         1.944956	     111.437752
	 B(8,6,9)         =         1.866484	     106.941637
	 B(11,1,13)       =         2.015234	     115.464390
	 D(1,2,10,9)      =         0.634735	      36.367631
	 D(2,1,11,3)      =        -2.048678	    -117.380584
	 D(2,1,11,4)      =         0.059308	       3.398079
	 D(2,1,11,12)     =         2.188678	     125.402026
	 D(2,10,9,6)      =         1.360315	      77.940313
	 D(3,11,1,13)     =         1.084670	      62.147037
	 D(4,11,1,13)     =        -3.090530	    -177.074300
	 D(5,6,9,10)      =         1.146644	      65.697857
	 D(7,6,9,10)      =        -0.986646	     -56.530646
	 D(8,6,9,10)      =        -3.067751	    -175.769184
	 D(10,2,1,11)     =         1.430323	      81.951449
	 D(10,2,1,13)     =        -1.702675	     -97.556105
	 D(12,11,1,13)    =        -0.961159	     -55.070353
	 R(1,6)           =         6.225279	       3.294276
	 R(9,11)          =         6.126524	       3.242017

	Current energy   :      -269.5173827287

	Energy change for the previous step:
		Projected    :        -0.0000019742
		Actual       :        -0.0000003391
	Energy ratio indicates iffy step: Trust radius decreased to 3.125e-02.


	Performing BFGS update.
	Previous computed or guess Hessian on step 1.
	Steps to be used in Hessian update: 11 10
	Taking RFO optimization step.
	Going to follow RFO solution 1.
	Using RFO vector 1.
	Norm of target step-size    0.00867
	Projected energy change by RFO approximation:        -0.0000014079

	Back-transformation to cartesian coordinates...
	Could not converge backtransformation.
	Using first guess instead.

	--- Internal Coordinate Step in ANG or DEG, aJ/ANG or AJ/DEG ---
	 ---------------------------------------------------------------------------
	   Coordinate                Previous        Force       Change         New 
	   ----------                --------       ------       ------       ------
	    1 R(1,2)          =      1.203814    -0.000163    -0.000017     1.203797
	    2 R(1,11)         =      1.498620    -0.000042     0.000006     1.498627
	    3 R(1,13)         =      1.108255     0.000099     0.000018     1.108273
	    4 R(2,10)         =      2.615939    -0.000012    -0.000090     2.615849
	    5 R(3,11)         =      1.093378     0.000162     0.000054     1.093432
	    6 R(4,11)         =      1.089020     0.000046    -0.000003     1.089017
	    7 R(5,6)          =      1.094024     0.000117     0.000013     1.094037
	    8 R(6,7)          =      1.094857     0.000205     0.000059     1.094916
	    9 R(6,8)          =      1.089346     0.000205     0.000071     1.089416
	   10 R(6,9)          =      1.418452    -0.000237    -0.000105     1.418347
	   11 R(9,10)         =      0.961237     0.000168     0.000023     0.961260
	   12 R(11,12)        =      1.092924     0.000173     0.000078     1.093001
	   13 B(1,2,10)       =     81.355223    -0.000002     0.021576    81.376799
	   14 B(1,11,3)       =    107.952330    -0.000001    -0.013052   107.939279
	   15 B(1,11,4)       =    110.554703     0.000001     0.009537   110.564240
	   16 B(1,11,12)      =    109.844477    -0.000001    -0.012373   109.832104
	   17 B(2,1,11)       =    124.538199     0.000001     0.005255   124.543454
	   18 B(2,1,13)       =    119.995738     0.000000     0.005857   120.001595
	   19 B(2,10,9)       =    106.292066     0.000004     0.035708   106.327775
	   20 B(3,11,4)       =    110.340520     0.000001     0.025234   110.365754
	   21 B(3,11,12)      =    107.735906    -0.000000    -0.021572   107.714334
	   22 B(4,11,12)      =    110.339509     0.000000     0.010850   110.350360
	   23 B(5,6,7)        =    109.034032    -0.000000     0.003387   109.037419
	   24 B(5,6,8)        =    108.472428    -0.000001    -0.007342   108.465085
	   25 B(5,6,9)        =    111.694953     0.000001     0.005746   111.700699
	   26 B(6,9,10)       =    107.927922    -0.000000    -0.000209   107.927712
	   27 B(7,6,8)        =    109.172885    -0.000001    -0.015287   109.157598
	   28 B(7,6,9)        =    111.437752     0.000000     0.005067   111.442819
	   29 B(8,6,9)        =    106.941637     0.000001     0.007473   106.949110
	   30 B(11,1,13)      =    115.464390    -0.000001    -0.011257   115.453134
	   31 D(1,2,10,9)     =     36.367631    -0.000000     0.010847    36.378477
	   32 D(2,1,11,3)     =   -117.380584    -0.000000    -0.087896  -117.468480
	   33 D(2,1,11,4)     =      3.398079     0.000000    -0.059468     3.338611
	   34 D(2,1,11,12)    =    125.402026     0.000000    -0.047815   125.354211
	   35 D(2,10,9,6)     =     77.940313    -0.000000    -0.028641    77.911672
	   36 D(3,11,1,13)    =     62.147037    -0.000000    -0.107855    62.039183
	   37 D(4,11,1,13)    =   -177.074300    -0.000000    -0.079426  -177.153726
	   38 D(5,6,9,10)     =     65.697857     0.000000     0.038863    65.736720
	   39 D(7,6,9,10)     =    -56.530646    -0.000000     0.026738   -56.503907
	   40 D(8,6,9,10)     =   -175.769184     0.000000     0.037803  -175.731382
	   41 D(10,2,1,11)    =     81.951449     0.000000     0.136523    82.087971
	   42 D(10,2,1,13)    =    -97.556105     0.000000     0.157407   -97.398698
	   43 D(12,11,1,13)   =    -55.070353    -0.000000    -0.067773   -55.138126
	   44 R(1,6)          =      3.294276     0.000207     0.000498     3.294774
	   45 R(9,11)         =      3.242017     0.000229     0.003638     3.245654
	 ---------------------------------------------------------------------------
	Successfully symmetrized geometry.

  ==> Convergence Check <==

  Measures of convergence in internal coordinates in au.
  Criteria marked as inactive (o), active & met (*), and active & unmet ( ).
  ---------------------------------------------------------------------------------------------
   Step     Total Energy     Delta E     MAX Force     RMS Force      MAX Disp      RMS Disp   
  ---------------------------------------------------------------------------------------------
    Convergence Criteria    1.00e-06 *    3.00e-04 *             o    1.20e-03 *             o
  ---------------------------------------------------------------------------------------------
     12    -269.51738273   -3.39e-07 *    5.47e-05 *    1.62e-05 o    6.87e-03      1.29e-03 o  ~
  ---------------------------------------------------------------------------------------------


  **** Optimization is complete! (in 12 steps) ****

  ==> Optimization Summary <==

  Measures of convergence in internal coordinates in au.
  --------------------------------------------------------------------------------------------------------------- ~
   Step         Total Energy             Delta E       MAX Force       RMS Force        MAX Disp        RMS Disp  ~
  --------------------------------------------------------------------------------------------------------------- ~
      1    -269.515272948814   -269.515272948814      0.00277830      0.00102310      0.27210627      0.06005354  ~
      2    -269.515453844228     -0.000180895414      0.01347541      0.00402430      0.11402957      0.03205317  ~
      3    -269.516560996909     -0.001107152681      0.00715783      0.00192620      0.15361344      0.05911436  ~
      4    -269.517042072749     -0.000481075840      0.00556431      0.00155828      0.07994829      0.02815621  ~
      5    -269.517283936510     -0.000241863761      0.00116798      0.00039175      0.05387138      0.01696348  ~
      6    -269.517325283797     -0.000041347287      0.00093633      0.00030491      0.04835371      0.01688710  ~
      7    -269.517349799951     -0.000024516154      0.00069725      0.00026451      0.03469310      0.01027524  ~
      8    -269.517368450945     -0.000018650994      0.00033757      0.00011029      0.03347324      0.01184739  ~
      9    -269.517376785979     -0.000008335034      0.00026271      0.00009226      0.01236348      0.00413984  ~
     10    -269.517380415144     -0.000003629165      0.00010459      0.00003712      0.01870968      0.00457742  ~
     11    -269.517382389605     -0.000001974461      0.00007262      0.00002677      0.00484934      0.00104003  ~
     12    -269.517382728704     -0.000000339099      0.00005473      0.00001620      0.00687433      0.00129190  ~
  --------------------------------------------------------------------------------------------------------------- ~

	Writing optimization data to binary file.
	Final energy is   -269.5173827287044
	Final (previous) structure:
	Cartesian Geometry (in Angstrom)
	    C    -0.2333534739  -1.1836747842   0.1057100015
	    O    -1.0484673057  -0.9186691696  -0.7395878829
	    H     0.0934275101  -0.4604944438   2.0606148432
	    H    -1.5744178608  -1.0447346738   1.7670602466
	    H     1.0535953065   2.4779807764  -1.5916816587
	    C     1.2148126935   1.5371206498  -1.0571920395
	    H     0.9197981439   0.7041579094  -1.7036065739
	    H     2.2752158477   1.4503228597  -0.8233421448
	    O     0.5157513599   1.5085845729   0.1767064347
	    H    -0.4258478929   1.5170034927  -0.0164149451
	    C    -0.5178050833  -1.2269500980   1.5764503642
	    H    -0.2200377966  -2.1965276407   1.9835575472
	    H     0.8122050142  -1.4094285718  -0.1842410516
	Saving final (previous) structure.
	Removing binary optimization data file.
			--------------------------
			 OPTKING Finished Execution 
			--------------------------

    Final optimized geometry and variables:
    Molecular point group: c1
    Full point group: C1

    Geometry (in Angstrom), charge = 0, multiplicity = 1:

    C           -0.233353473910    -1.183674784216     0.105710001475
    O           -1.048467305684    -0.918669169640    -0.739587882905
    H            0.093427510055    -0.460494443849     2.060614843167
    H           -1.574417860831    -1.044734673803     1.767060246629
    H            1.053595306496     2.477980776391    -1.591681658725
    C            1.214812693482     1.537120649801    -1.057192039484
    H            0.919798143911     0.704157909405    -1.703606573878
    H            2.275215847661     1.450322859726    -0.823342144762
    O            0.515751359939     1.508584572923     0.176706434722
    H           -0.425847892879     1.517003492725    -0.016414945090
    C           -0.517805083271    -1.226950097951     1.576450364207
    H           -0.220037796605    -2.196527640677     1.983557547172
    H            0.812205014183    -1.409428571824    -0.184241051608

	Removing binary optimization data file.
	Cleaning optimization helper files.

    Psi4 stopped on: Tuesday, 19 March 2019 12:50PM
    Psi4 wall time for execution: 0:02:35.25

*** Psi4 exiting successfully. Buy a developer a beer!
