
    -----------------------------------------------------------------------
          Psi4: An Open-Source Ab Initio Electronic Structure Package
                               Psi4 1.2.1 release

                         Git: Rev {HEAD} 406f4de 


    R. M. Parrish, L. A. Burns, D. G. A. Smith, A. C. Simmonett,
    A. E. DePrince III, E. G. Hohenstein, U. Bozkaya, A. Yu. Sokolov,
    R. Di Remigio, R. M. Richard, J. F. Gonthier, A. M. James,
    H. R. McAlexander, A. Kumar, M. Saitow, X. Wang, B. P. Pritchard,
    P. Verma, H. F. Schaefer III, K. Patkowski, R. A. King, E. F. Valeev,
    F. A. Evangelista, J. M. Turney, T. D. Crawford, and C. D. Sherrill,
    J. Chem. Theory Comput. 13(7) pp 3185--3197 (2017).
    (doi: 10.1021/acs.jctc.7b00174)


                         Additional Contributions by
    P. Kraus, H. Kruse, M. H. Lechner, M. C. Schieber, and R. A. Shaw

    -----------------------------------------------------------------------


    Psi4 started on: Monday, 13 May 2019 10:57AM

    Process ID: 20374
    Host:       localhost.localdomain
    PSIDATADIR: /root/psi4conda/share/psi4
    Memory:     500.0 MiB
    Threads:    1
    
  ==> Input File <==

--------------------------------------------------------------------------
molecule{
0 1
 C   -0.096702550851   -0.564746944292   -0.837670917229
 O   -1.113975479868   -0.642690286614   -1.456988515459
 F    1.044544036893   -0.028792226470    1.199284055263
 F   -1.111870774580    0.067866701877    1.242960287961
 H    1.291124819205    3.033818009938   -1.958542648154
 C    1.295461311322    1.985483965440   -1.653505250016
 H    1.344942777455    1.350532369111   -2.544850883011
 H    2.173050713097    1.803469426262   -1.034629052068
 O    0.165737875511    1.676545067036   -0.854119608514
 H   -0.643228830141    1.833372853070   -1.352913610879
 C   -0.077692668352   -0.554539961559    0.700715089736
 F   -0.111724725431   -1.846861667232    1.067830247746
 H    0.910267736886   -0.664472870127   -1.279432782561 
}

set{
   basis 6-311++G(d,p)
   freeze_core True
}


set_num_threads(32)
optimize('m06-2x')
--------------------------------------------------------------------------
  Threads set to 32 by Python driver.
gradient() will perform analytic gradient computation.

*** tstart() called on localhost.localdomain
*** at Mon May 13 10:57:23 2019

   => Loading Basis Set <=

    Name: 6-311++G(D,P)
    Role: ORBITAL
    Keyword: BASIS
    atoms 1, 6, 11       entry C          line   119 file /root/psi4conda/share/psi4/basis/6-311ppg_d_p_.gbs 
    atoms 2, 9           entry O          line   161 file /root/psi4conda/share/psi4/basis/6-311ppg_d_p_.gbs 
    atoms 3-4, 12        entry F          line   182 file /root/psi4conda/share/psi4/basis/6-311ppg_d_p_.gbs 
    atoms 5, 7-8, 10, 13 entry H          line    42 file /root/psi4conda/share/psi4/basis/6-311ppg_d_p_.gbs 


         ---------------------------------------------------------
                                   SCF
            by Justin Turney, Rob Parrish, Andy Simmonett
                             and Daniel Smith
                              RKS Reference
                       32 Threads,    500 MiB Core
         ---------------------------------------------------------

  ==> Geometry <==

    Molecular point group: c1
    Full point group: C1

    Geometry (in Angstrom), charge = 0, multiplicity = 1:

       Center              X                  Y                   Z               Mass       
    ------------   -----------------  -----------------  -----------------  -----------------
         C           -0.096702550851    -0.564746944292    -0.837670917229    12.000000000000
         O           -1.113975479868    -0.642690286614    -1.456988515459    15.994914619560
         F            1.044544036893    -0.028792226470     1.199284055263    18.998403224000
         F           -1.111870774580     0.067866701877     1.242960287961    18.998403224000
         H            1.291124819205     3.033818009938    -1.958542648154     1.007825032070
         C            1.295461311322     1.985483965440    -1.653505250016    12.000000000000
         H            1.344942777455     1.350532369111    -2.544850883011     1.007825032070
         H            2.173050713097     1.803469426262    -1.034629052068     1.007825032070
         O            0.165737875511     1.676545067036    -0.854119608514    15.994914619560
         H           -0.643228830141     1.833372853070    -1.352913610879     1.007825032070
         C           -0.077692668352    -0.554539961559     0.700715089736    12.000000000000
         F           -0.111724725431    -1.846861667232     1.067830247746    18.998403224000
         H            0.910267736886    -0.664472870127    -1.279432782561     1.007825032070

  Running in c1 symmetry.

  Rotational constants: A =      0.09742  B =      0.04758  C =      0.04082 [cm^-1]
  Rotational constants: A =   2920.47131  B =   1426.37734  C =   1223.86616 [MHz]
  Nuclear repulsion =  431.202617703444901

  Charge       = 0
  Multiplicity = 1
  Electrons    = 66
  Nalpha       = 33
  Nbeta        = 33

  ==> Algorithm <==

  SCF Algorithm Type is DF.
  DIIS enabled.
  MOM disabled.
  Fractional occupation disabled.
  Guess Type is SAD.
  Energy threshold   = 1.00e-08
  Density threshold  = 1.00e-08
  Integral threshold = 0.00e+00

  ==> Primary Basis <==

  Basis Set: 6-311++G(D,P)
    Blend: 6-311++G(D,P)
    Number of shells: 105
    Number of basis function: 211
    Number of Cartesian functions: 219
    Spherical Harmonics?: true
    Max angular momentum: 2

  ==> DFT Potential <==

   => Composite Functional: M06-2X <= 

    Hybrid M06-2X Meta-GGA XC Functional

    Y. Zhao and D. G. Truhlar,  Theor. Chem. Acc., 120, 215, 2008


    Deriv               =              1
    GGA                 =           TRUE
    Meta                =           TRUE

    Exchange Hybrid     =           TRUE
    MP2 Hybrid          =          FALSE

   => Exchange Functionals <=

    1.0000   XC_HYB_MGGA_X_M06_2X

   => Exact (HF) Exchange <=

    0.5400               HF 

   => Correlation Functionals <=

    1.0000   XC_MGGA_C_M06_2X

   => Molecular Quadrature <=

    Radial Scheme       =       TREUTLER
    Pruning Scheme      =           FLAT
    Nuclear Scheme      =       TREUTLER

    BS radius alpha     =              1
    Pruning alpha       =              1
    Radial Points       =             75
    Spherical Points    =            302
    Total Points        =         294450
    Total Blocks        =           2273
    Max Points          =            256
    Max Functions       =            197

   => Loading Basis Set <=

    Name: (6-311++G(D,P) AUX)
    Role: JKFIT
    Keyword: DF_BASIS_SCF
    atoms 1, 6, 11       entry C          line   162 file /root/psi4conda/share/psi4/basis/aug-cc-pvtz-jkfit.gbs 
    atoms 2, 9           entry O          line   286 file /root/psi4conda/share/psi4/basis/aug-cc-pvtz-jkfit.gbs 
    atoms 3-4, 12        entry F          line   348 file /root/psi4conda/share/psi4/basis/aug-cc-pvtz-jkfit.gbs 
    atoms 5, 7-8, 10, 13 entry H          line    70 file /root/psi4conda/share/psi4/basis/aug-cc-pvtz-jkfit.gbs 

  ==> Pre-Iterations <==

   -------------------------------------------------------
    Irrep   Nso     Nmo     Nalpha   Nbeta   Ndocc  Nsocc
   -------------------------------------------------------
     A        211     211       0       0       0       0
   -------------------------------------------------------
    Total     211     211      33      33      33       0
   -------------------------------------------------------

  ==> Integral Setup <==

  DFHelper Memory: AOs need 0.431 [GiB]; user supplied 0.366 [GiB]. Turning off in-core AOs.

  ==> MemDFJK: Density-Fitted J/K Matrices <==

    J tasked:                   Yes
    K tasked:                   Yes
    wK tasked:                   No
    OpenMP threads:              32
    Memory (MB):                375
    Algorithm:                 Disk
    Schwarz Cutoff:           1E-12
    Mask sparsity (%):       7.6458
    Fitting Condition:        1E-12

   => Auxiliary Basis Set <=

  Basis Set: (6-311++G(D,P) AUX)
    Blend: AUG-CC-PVTZ-JKFIT
    Number of shells: 310
    Number of basis function: 1062
    Number of Cartesian functions: 1323
    Spherical Harmonics?: true
    Max angular momentum: 4

  Minimum eigenvalue in the overlap matrix is 7.1515926269E-05.
  Using Symmetric Orthogonalization.

  SCF Guess: Superposition of Atomic Densities via on-the-fly atomic UHF.

  ==> Iterations <==

                           Total Energy        Delta E     RMS |[F,P]|

   @DF-RKS iter   0:  -569.36089671678519   -5.69361e+02   1.09836e-01 
   @DF-RKS iter   1:  -567.01537493139472    2.34552e+00   1.34387e-02 
   @DF-RKS iter   2:  -566.87672582524920    1.38649e-01   2.29725e-02 DIIS
   @DF-RKS iter   3:  -567.23804753536979   -3.61322e-01   2.94388e-03 DIIS
   @DF-RKS iter   4:  -567.24302607509765   -4.97854e-03   1.33646e-03 DIIS
   @DF-RKS iter   5:  -567.24506225622804   -2.03618e-03   2.61042e-04 DIIS
   @DF-RKS iter   6:  -567.24512130883102   -5.90526e-05   7.12791e-05 DIIS
   @DF-RKS iter   7:  -567.24513121410962   -9.90528e-06   3.72663e-05 DIIS
   @DF-RKS iter   8:  -567.24513226451631   -1.05041e-06   1.55935e-05 DIIS
   @DF-RKS iter   9:  -567.24513239737757   -1.32861e-07   2.69851e-06 DIIS
   @DF-RKS iter  10:  -567.24513240801070   -1.06331e-08   1.12251e-06 DIIS
   @DF-RKS iter  11:  -567.24513240929150   -1.28080e-09   3.37271e-07 DIIS
   @DF-RKS iter  12:  -567.24513240953047   -2.38970e-10   1.64272e-07 DIIS
   @DF-RKS iter  13:  -567.24513240958515   -5.46834e-11   6.05998e-08 DIIS
   @DF-RKS iter  14:  -567.24513240959902   -1.38698e-11   2.90146e-08 DIIS
   @DF-RKS iter  15:  -567.24513240960175   -2.72848e-12   1.03557e-08 DIIS
   @DF-RKS iter  16:  -567.24513240960152    2.27374e-13   2.07874e-09 DIIS

  ==> Post-Iterations <==

    Orbital Energies [Eh]
    ---------------------

    Doubly Occupied:                                                      

       1A    -25.287165     2A    -25.286475     3A    -25.284809  
       4A    -19.660400     5A    -19.653507     6A    -10.805889  
       7A    -10.671822     8A    -10.606228     9A     -1.481079  
      10A     -1.388438    11A     -1.385052    12A     -1.215512  
      13A     -1.181679    14A     -0.864772    15A     -0.809243  
      16A     -0.761968    17A     -0.707163    18A     -0.704392  
      19A     -0.655473    20A     -0.622062    21A     -0.586313  
      22A     -0.584376    23A     -0.567992    24A     -0.560781  
      25A     -0.545325    26A     -0.537021    27A     -0.529807  
      28A     -0.521645    29A     -0.517960    30A     -0.486468  
      31A     -0.442416    32A     -0.384221    33A     -0.364132  

    Virtual:                                                              

      34A     -0.011589    35A     -0.007252    36A      0.006878  
      37A      0.018182    38A      0.025046    39A      0.044820  
      40A      0.053323    41A      0.061162    42A      0.065791  
      43A      0.070294    44A      0.092394    45A      0.100616  
      46A      0.103494    47A      0.111868    48A      0.119871  
      49A      0.130848    50A      0.136945    51A      0.152917  
      52A      0.180045    53A      0.184362    54A      0.195441  
      55A      0.201191    56A      0.227950    57A      0.229710  
      58A      0.237520    59A      0.245829    60A      0.257193  
      61A      0.264979    62A      0.275545    63A      0.283539  
      64A      0.290070    65A      0.303969    66A      0.307264  
      67A      0.321209    68A      0.327404    69A      0.331182  
      70A      0.342782    71A      0.351171    72A      0.365157  
      73A      0.372664    74A      0.381471    75A      0.390967  
      76A      0.399001    77A      0.406487    78A      0.422262  
      79A      0.424636    80A      0.454055    81A      0.463625  
      82A      0.483559    83A      0.503917    84A      0.549004  
      85A      0.578943    86A      0.598418    87A      0.612356  
      88A      0.644665    89A      0.654804    90A      0.681609  
      91A      0.684705    92A      0.689804    93A      0.718289  
      94A      0.731084    95A      0.756358    96A      0.799385  
      97A      0.932305    98A      0.960099    99A      1.012964  
     100A      1.029845   101A      1.078908   102A      1.106747  
     103A      1.143302   104A      1.159036   105A      1.201346  
     106A      1.223610   107A      1.249832   108A      1.287126  
     109A      1.337700   110A      1.355783   111A      1.378428  
     112A      1.391908   113A      1.441191   114A      1.452112  
     115A      1.462414   116A      1.475914   117A      1.485811  
     118A      1.495012   119A      1.508702   120A      1.527202  
     121A      1.535790   122A      1.549909   123A      1.572269  
     124A      1.589165   125A      1.602449   126A      1.641726  
     127A      1.680276   128A      1.695296   129A      1.729246  
     130A      1.735416   131A      1.752196   132A      1.799821  
     133A      1.826348   134A      1.875559   135A      1.922421  
     136A      1.977298   137A      2.006469   138A      2.013267  
     139A      2.033645   140A      2.073031   141A      2.087847  
     142A      2.149625   143A      2.226090   144A      2.276948  
     145A      2.367025   146A      2.441806   147A      2.479421  
     148A      2.499994   149A      2.533435   150A      2.541545  
     151A      2.604413   152A      2.669388   153A      2.743546  
     154A      2.852337   155A      2.895057   156A      2.926030  
     157A      2.939135   158A      3.010752   159A      3.025318  
     160A      3.041087   161A      3.069923   162A      3.179642  
     163A      3.250516   164A      3.315122   165A      3.414063  
     166A      3.496220   167A      3.569624   168A      3.654950  
     169A      3.780943   170A      3.800040   171A      3.821332  
     172A      3.835909   173A      3.839708   174A      3.855698  
     175A      3.863584   176A      3.868765   177A      3.890056  
     178A      3.961222   179A      3.979942   180A      4.032766  
     181A      4.057102   182A      4.081838   183A      4.221021  
     184A      4.292692   185A      4.302491   186A      4.677744  
     187A      4.991217   188A      5.004028   189A      5.134847  
     190A      5.236810   191A      5.249243   192A      5.538543  
     193A      5.721960   194A      5.792428   195A      6.432090  
     196A      6.451799   197A      6.488105   198A      6.500489  
     199A      6.509506   200A      6.535535   201A      6.590369  
     202A      6.888312   203A      6.909120   204A     23.595164  
     205A     23.933345   206A     23.980160   207A     49.990615  
     208A     50.082194   209A     66.881530   210A     66.888933  
     211A     66.942945  

    Final Occupation by Irrep:
              A 
    DOCC [    33 ]

  Energy converged.

  @DF-RKS Final Energy:  -567.24513240960152

   => Energetics <=

    Nuclear Repulsion Energy =            431.2026177034449006
    One-Electron Energy =               -1639.1136458155747277
    Two-Electron Energy =                 672.6834822100920519
    DFT Exchange-Correlation Energy =     -32.0175865075638058
    Empirical Dispersion Energy =           0.0000000000000000
    VV10 Nonlocal Energy =                  0.0000000000000000
    Total Energy =                       -567.2451324096015242



Properties will be evaluated at   0.000000,   0.000000,   0.000000 [a0]

Properties computed using the SCF density matrix

  Nuclear Dipole Moment: [e a0]
     X:     4.9231      Y:     8.6071      Z:   -10.9818

  Electronic Dipole Moment: [e a0]
     X:    -4.0530      Y:    -7.8340      Z:    10.0391

  Dipole Moment: [e a0]
     X:     0.8701      Y:     0.7730      Z:    -0.9427     Total:     1.4978

  Dipole Moment: [D]
     X:     2.2115      Y:     1.9648      Z:    -2.3962     Total:     3.8070


*** tstop() called on localhost.localdomain at Mon May 13 10:57:37 2019
Module time:
	user time   =     374.68 seconds =       6.24 minutes
	system time =      18.62 seconds =       0.31 minutes
	total time  =         14 seconds =       0.23 minutes
Total time:
	user time   =     374.68 seconds =       6.24 minutes
	system time =      18.62 seconds =       0.31 minutes
	total time  =         14 seconds =       0.23 minutes

*** tstart() called on localhost.localdomain
*** at Mon May 13 10:57:37 2019


         ------------------------------------------------------------
                                   SCF GRAD                          
                          Rob Parrish, Justin Turney,                
                       Andy Simmonett, and Alex Sokolov              
         ------------------------------------------------------------

  ==> Geometry <==

    Molecular point group: c1
    Full point group: C1

    Geometry (in Angstrom), charge = 0, multiplicity = 1:

       Center              X                  Y                   Z               Mass       
    ------------   -----------------  -----------------  -----------------  -----------------
         C           -0.096702550851    -0.564746944292    -0.837670917229    12.000000000000
         O           -1.113975479868    -0.642690286614    -1.456988515459    15.994914619560
         F            1.044544036893    -0.028792226470     1.199284055263    18.998403224000
         F           -1.111870774580     0.067866701877     1.242960287961    18.998403224000
         H            1.291124819205     3.033818009938    -1.958542648154     1.007825032070
         C            1.295461311322     1.985483965440    -1.653505250016    12.000000000000
         H            1.344942777455     1.350532369111    -2.544850883011     1.007825032070
         H            2.173050713097     1.803469426262    -1.034629052068     1.007825032070
         O            0.165737875511     1.676545067036    -0.854119608514    15.994914619560
         H           -0.643228830141     1.833372853070    -1.352913610879     1.007825032070
         C           -0.077692668352    -0.554539961559     0.700715089736    12.000000000000
         F           -0.111724725431    -1.846861667232     1.067830247746    18.998403224000
         H            0.910267736886    -0.664472870127    -1.279432782561     1.007825032070

  Nuclear repulsion =  431.202617703444901

  ==> Basis Set <==

  Basis Set: 6-311++G(D,P)
    Blend: 6-311++G(D,P)
    Number of shells: 105
    Number of basis function: 211
    Number of Cartesian functions: 219
    Spherical Harmonics?: true
    Max angular momentum: 2

  ==> DFJKGrad: Density-Fitted SCF Gradients <==

    Gradient:                    1
    J tasked:                  Yes
    K tasked:                  Yes
    wK tasked:                  No
    OpenMP threads:             32
    Integrals threads:          32
    Memory (MB):               375
    Schwarz Cutoff:          0E+00
    Fitting Condition:       1E-12

   => Auxiliary Basis Set <=

  Basis Set: (6-311++G(D,P) AUX)
    Blend: AUG-CC-PVTZ-JKFIT
    Number of shells: 310
    Number of basis function: 1062
    Number of Cartesian functions: 1323
    Spherical Harmonics?: true
    Max angular momentum: 4

  ==> DFT Potential <==

   => Composite Functional: M06-2X <= 

    Hybrid M06-2X Meta-GGA XC Functional

    Y. Zhao and D. G. Truhlar,  Theor. Chem. Acc., 120, 215, 2008


    Deriv               =              1
    GGA                 =           TRUE
    Meta                =           TRUE

    Exchange Hybrid     =           TRUE
    MP2 Hybrid          =          FALSE

   => Exchange Functionals <=

    1.0000   XC_HYB_MGGA_X_M06_2X

   => Exact (HF) Exchange <=

    0.5400               HF 

   => Correlation Functionals <=

    1.0000   XC_MGGA_C_M06_2X

   => Molecular Quadrature <=

    Radial Scheme       =       TREUTLER
    Pruning Scheme      =           FLAT
    Nuclear Scheme      =       TREUTLER

    BS radius alpha     =              1
    Pruning alpha       =              1
    Radial Points       =             75
    Spherical Points    =            302
    Total Points        =         294450
    Total Blocks        =           2273
    Max Points          =            256
    Max Functions       =            197


  -Total Gradient:
     Atom            X                  Y                   Z
    ------   -----------------  -----------------  -----------------
       1        0.000737548575     0.003294259099     0.000201008310
       2        0.001156521413     0.003643013374    -0.000354906473
       3        0.000227791725     0.000486795380     0.003756133068
       4        0.000604050670     0.000824243984     0.002205572983
       5       -0.000335705565    -0.000188638939     0.000087520767
       6       -0.001239625823    -0.002318955869     0.000627732858
       7        0.000144762388    -0.000166589412     0.000049123063
       8       -0.000150830695     0.000001417675     0.000160285441
       9       -0.001659940923    -0.007496628171    -0.001334901824
      10       -0.000553998747    -0.000617244038    -0.000465546971
      11        0.000396923362     0.001489643795     0.000235138662
      12        0.000359444382     0.000974513297    -0.004777292768
      13        0.000076897673     0.000105340663     0.000079267886


*** tstop() called on localhost.localdomain at Mon May 13 10:57:42 2019
Module time:
	user time   =     102.08 seconds =       1.70 minutes
	system time =       4.18 seconds =       0.07 minutes
	total time  =          5 seconds =       0.08 minutes
Total time:
	user time   =     476.81 seconds =       7.95 minutes
	system time =      22.81 seconds =       0.38 minutes
	total time  =         19 seconds =       0.32 minutes

			-----------------------------------------
			 OPTKING 2.0: for geometry optimizations 
			  - R.A. King,  Bethel University        
			-----------------------------------------

	Internal coordinates to be generated automatically.
	Detected frag 1 with atoms:  1 2 3 4 11 12 13
	Detected frag 2 with atoms:  5 6 7 8 9 10
	Unifying fragments since fragment_mode == SINGLE
	Connecting fragments 1 and 2
	---Fragment 1 Bond Connectivity---
	 1 : 2 9 11 13
	 2 : 1
	 3 : 11
	 4 : 11
	 5 : 6
	 6 : 5 7 8 9
	 7 : 6
	 8 : 6
	 9 : 1 6 10
	 10 : 9
	 11 : 1 3 4 12
	 12 : 11
	 13 : 1

	---Fragment 1 Geometry and Gradient---
	 C          -0.1827413375       -1.0672170591       -1.5829686230
	 O          -2.1051085757       -1.2145086300       -2.7533092730
	 F           1.9739021635       -0.0544094228        2.2663184200
	 F          -2.1011312591        0.1282494801        2.3488545383
	 H           2.4398723117        5.7330851758       -3.7011092246
	 C           2.4480670941        3.7520209359       -3.1246720818
	 H           2.5415735138        2.5521363112       -4.8090712179
	 H           4.1064707206        3.4080633047       -1.9551655575
	 O           0.3131991946        3.1682110261       -1.6140521448
	 H          -1.2155263297        3.4645725918       -2.5566362060
	 C          -0.1468178657       -1.0479286571        1.3241596168
	 F          -0.2111291333       -3.4900627564        2.0179067247
	 H           1.7201567303       -1.2556717473       -2.4177775645
	             0.0007375486        0.0032942591        0.0002010083
	             0.0011565214        0.0036430134       -0.0003549065
	             0.0002277917        0.0004867954        0.0037561331
	             0.0006040507        0.0008242440        0.0022055730
	            -0.0003357056       -0.0001886389        0.0000875208
	            -0.0012396258       -0.0023189559        0.0006277329
	             0.0001447624       -0.0001665894        0.0000491231
	            -0.0001508307        0.0000014177        0.0001602854
	            -0.0016599409       -0.0074966282       -0.0013349018
	            -0.0005539987       -0.0006172440       -0.0004655470
	             0.0003969234        0.0014896438        0.0002351387
	             0.0003594444        0.0009745133       -0.0047772928
	             0.0000768977        0.0001053407        0.0000792679

	Previous optimization step data not found.  Starting new optimization.

	---Fragment 1 Intrafragment Coordinates---
	 - Coordinate -           - BOHR/RAD -       - ANG/DEG -
	 R(1,2)           =         2.255413	       1.193513
	 R(1,9)           =         4.264478	       2.256665
	 R(1,11)          =         2.907414	       1.538537
	 R(1,13)          =         2.086490	       1.104123
	 R(3,11)          =         2.524321	       1.335813
	 R(4,11)          =         2.500547	       1.323233
	 R(5,6)           =         2.063241	       1.091820
	 R(6,7)           =         2.070185	       1.095495
	 R(6,8)           =         2.058241	       1.089174
	 R(6,9)           =         2.679639	       1.418004
	 R(9,10)          =         1.820246	       0.963233
	 R(11,12)         =         2.539575	       1.343885
	 B(1,9,6)         =         1.889301	     108.248956
	 B(1,9,10)        =         1.638657	      93.888148
	 B(1,11,3)        =         1.967291	     112.717465
	 B(1,11,4)        =         1.985820	     113.779117
	 B(1,11,12)       =         1.840510	     105.453433
	 B(2,1,9)         =         1.731691	      99.218597
	 B(2,1,11)        =         2.129181	     121.993060
	 B(2,1,13)        =         2.169806	     124.320701
	 B(3,11,4)        =         1.894966	     108.573577
	 B(3,11,12)       =         1.873178	     107.325199
	 B(4,11,12)       =         1.897144	     108.698325
	 B(5,6,7)         =         1.906440	     109.230962
	 B(5,6,8)         =         1.899065	     108.808424
	 B(5,6,9)         =         1.942848	     111.316969
	 B(6,9,10)        =         1.919531	     109.981040
	 B(7,6,8)         =         1.906112	     109.212160
	 B(7,6,9)         =         1.948076	     111.616558
	 B(8,6,9)         =         1.860014	     106.570924
	 B(9,1,11)        =         1.570059	      89.957731
	 B(9,1,13)        =         1.551522	      88.895672
	 B(11,1,13)       =         1.970769	     112.916750
	 D(1,9,6,5)       =         2.827214	     161.987408
	 D(1,9,6,7)       =         0.691974	      39.647186
	 D(1,9,6,8)       =        -1.387716	     -79.510252
	 D(2,1,9,6)       =        -1.954101	    -111.961729
	 D(2,1,9,10)      =         0.009787	       0.560755
	 D(2,1,11,3)      =        -2.776755	    -159.096357
	 D(2,1,11,4)      =        -0.609378	     -34.914780
	 D(2,1,11,12)     =         1.468095	      84.115663
	 D(3,11,1,9)      =        -1.016395	     -58.235116
	 D(3,11,1,13)     =         0.533164	      30.548038
	 D(4,11,1,9)      =         1.150983	      65.946462
	 D(4,11,1,13)     =         2.700541	     154.729615
	 D(5,6,9,10)      =         1.059281	      60.692346
	 D(6,9,1,11)      =         2.191851	     125.583787
	 D(6,9,1,13)      =         0.220987	      12.661646
	 D(7,6,9,10)      =        -1.075958	     -61.647876
	 D(8,6,9,10)      =         3.127537	     179.194686
	 D(9,1,11,12)     =        -3.054729	    -175.023095
	 D(10,9,1,11)     =        -2.127447	    -121.893728
	 D(10,9,1,13)     =         2.184875	     125.184131
	 D(12,11,1,13)    =        -1.505171	     -86.239942

	Current energy   :      -567.2451324096

	Generating empirical Hessian (Schlegel '84) for each fragment.
	Taking RFO optimization step.
	Going to follow RFO solution 1.
	Using RFO vector 1.
	Norm of target step-size    0.22729
	Projected energy change by RFO approximation:        -0.0040356081

	Back-transformation to cartesian coordinates...
	Successfully converged to displaced geometry.

	--- Internal Coordinate Step in ANG or DEG, aJ/ANG or AJ/DEG ---
	 ---------------------------------------------------------------------------
	   Coordinate                Previous        Force       Change         New 
	   ----------                --------       ------       ------       ------
	    1 R(1,2)          =      1.193513     0.008528     0.000505     1.194018
	    2 R(1,9)          =      2.256665     0.091788     0.102611     2.359276
	    3 R(1,11)         =      1.538537    -0.010790    -0.002390     1.536148
	    4 R(1,13)         =      1.104123    -0.000508    -0.000097     1.104026
	    5 R(3,11)         =      1.335813    -0.014668    -0.001610     1.334203
	    6 R(4,11)         =      1.323233    -0.006518    -0.000681     1.322552
	    7 R(5,6)          =      1.091820     0.001622     0.000298     1.092118
	    8 R(6,7)          =      1.095495    -0.000747    -0.000139     1.095356
	    9 R(6,8)          =      1.089174     0.000257     0.000047     1.089221
	   10 R(6,9)          =      1.418004     0.018332     0.002731     1.420735
	   11 R(9,10)         =      0.963233    -0.005011    -0.000584     0.962649
	   12 R(11,12)        =      1.343885     0.018608     0.002108     1.345993
	   13 B(1,9,6)        =    108.248956     0.000374     1.282461   109.531417
	   14 B(1,9,10)       =     93.888148    -0.000037     0.530578    94.418726
	   15 B(1,11,3)       =    112.717465    -0.000470    -1.551121   111.166343
	   16 B(1,11,4)       =    113.779117    -0.000276    -0.958538   112.820578
	   17 B(1,11,12)      =    105.453433     0.000701     2.434004   107.887437
	   18 B(2,1,9)        =     99.218597     0.000395     1.804236   101.022833
	   19 B(2,1,11)       =    121.993060    -0.000051    -0.361395   121.631666
	   20 B(2,1,13)       =    124.320701     0.000005     0.036986   124.357687
	   21 B(3,11,4)       =    108.573577     0.000330     0.346077   108.919654
	   22 B(3,11,12)      =    107.325199    -0.000083     0.094763   107.419962
	   23 B(4,11,12)      =    108.698325    -0.000187    -0.252731   108.445594
	   24 B(5,6,7)        =    109.230962    -0.000010    -0.063556   109.167405
	   25 B(5,6,8)        =    108.808424    -0.000019    -0.047206   108.761218
	   26 B(5,6,9)        =    111.316969     0.000028     0.111812   111.428782
	   27 B(6,9,10)       =    109.981040    -0.000055    -0.023844   109.957196
	   28 B(7,6,8)        =    109.212160    -0.000001    -0.005763   109.206397
	   29 B(7,6,9)        =    111.616558    -0.000015    -0.044181   111.572377
	   30 B(8,6,9)        =    106.570924     0.000018     0.049407   106.620331
	   31 B(9,1,11)       =     89.957731    -0.000476    -1.204235    88.753496
	   32 B(9,1,13)       =     88.895672     0.000080     0.014166    88.909839
	   33 B(11,1,13)      =    112.916750     0.000039     0.182860   113.099610
	   34 D(1,9,6,5)      =    161.987408     0.000013     1.830418   163.817826
	   35 D(1,9,6,7)      =     39.647186     0.000014     1.863915    41.511101
	   36 D(1,9,6,8)      =    -79.510252     0.000014     1.865135   -77.645118
	   37 D(2,1,9,6)      =   -111.961729    -0.000011     0.723050  -111.238679
	   38 D(2,1,9,10)     =      0.560755    -0.000009     1.195448     1.756203
	   39 D(2,1,11,3)     =   -159.096357     0.000004     0.590766  -158.505591
	   40 D(2,1,11,4)     =    -34.914780    -0.000033    -0.896690   -35.811470
	   41 D(2,1,11,12)    =     84.115663    -0.000015    -0.157240    83.958423
	   42 D(3,11,1,9)     =    -58.235116     0.000040     1.922913   -56.312203
	   43 D(3,11,1,13)    =     30.548038     0.000014     1.422356    31.970394
	   44 D(4,11,1,9)     =     65.946462     0.000004     0.435456    66.381918
	   45 D(4,11,1,13)    =    154.729615    -0.000022    -0.065100   154.664515
	   46 D(5,6,9,10)     =     60.692346    -0.000009     0.663899    61.356245
	   47 D(6,9,1,11)     =    125.583787     0.000013     1.158428   126.742215
	   48 D(6,9,1,13)     =     12.661646     0.000002     0.944953    13.606599
	   49 D(7,6,9,10)     =    -61.647876    -0.000009     0.697395   -60.950480
	   50 D(8,6,9,10)     =    179.194686    -0.000009     0.698615   179.893301
	   51 D(9,1,11,12)    =   -175.023095     0.000022     1.174907  -173.848189
	   52 D(10,9,1,11)    =   -121.893728     0.000014     1.630826  -120.262903
	   53 D(10,9,1,13)    =    125.184131     0.000003     1.417350   126.601481
	   54 D(12,11,1,13)   =    -86.239942    -0.000005     0.674350   -85.565592
	 ---------------------------------------------------------------------------
	Successfully symmetrized geometry.

  ==> Convergence Check <==

  Measures of convergence in internal coordinates in au.
  Criteria marked as inactive (o), active & met (*), and active & unmet ( ).
  --------------------------------------------------------------------------------------------- ~
   Step     Total Energy     Delta E     MAX Force     RMS Force      MAX Disp      RMS Disp    ~
  --------------------------------------------------------------------------------------------- ~
    Convergence Criteria    1.00e-06 *    3.00e-04 *             o    1.20e-03 *             o  ~
  --------------------------------------------------------------------------------------------- ~
      1    -567.24513241   -5.67e+02      1.11e-02      2.77e-03 o    1.94e-01      3.09e-02 o  ~
  ---------------------------------------------------------------------------------------------

	Writing optimization data to binary file.
	Structure for next step:
	Cartesian Geometry (in Angstrom)
	    C    -0.0823985483  -0.6432515125  -0.8330244936
	    O    -1.1020680161  -0.7692038750  -1.4413740220
	    F     1.0485277142  -0.0112814021   1.1523076123
	    F    -1.1122599754   0.0154019270   1.2140168238
	    H     1.2513333079   3.1178723672  -1.9279024747
	    C     1.2727136032   2.0579517213  -1.6655421239
	    H     1.3041704652   1.4608519883  -2.5833039605
	    H     2.1687385500   1.8603469647  -1.0786062558
	    O     0.1655772364   1.7029013330  -0.8490392818
	    H    -0.6568450685   1.8611692381  -1.3236613770
	    C    -0.0602124475  -0.6015116328   0.7023955902
	    F    -0.0512341057  -1.8707332144   1.1503841675
	    H     0.9238915260  -0.7315294663  -1.2785137916
			--------------------------
			 OPTKING Finished Execution 
			--------------------------

    Structure for next step:
    Molecular point group: c1
    Full point group: C1

    Geometry (in Angstrom), charge = 0, multiplicity = 1:

    C           -0.093383503400    -0.619086388816    -0.835845046891
    O           -1.113052971219    -0.745038751298    -1.444194575280
    F            1.037542759129     0.012883721548     1.149487059039
    F           -1.123244930533     0.039567050715     1.211196270504
    H            1.240348352781     3.142037490901    -1.930723027963
    C            1.261728648081     2.082116844989    -1.668362677192
    H            1.293185510075     1.485017112004    -2.586124513788
    H            2.157753594935     1.884512088405    -1.081426809037
    O            0.154592281284     1.727066456646    -0.851859835017
    H           -0.667830023633     1.885334361766    -1.326481930270
    C           -0.071197402611    -0.577346509115     0.699575036981
    F           -0.062219060804    -1.846568090740     1.147563614278
    H            0.912906570944    -0.707364342644    -1.281334344903

gradient() will perform analytic gradient computation.

*** tstart() called on localhost.localdomain
*** at Mon May 13 10:57:42 2019

   => Loading Basis Set <=

    Name: 6-311++G(D,P)
    Role: ORBITAL
    Keyword: BASIS
    atoms 1, 6, 11       entry C          line   119 file /root/psi4conda/share/psi4/basis/6-311ppg_d_p_.gbs 
    atoms 2, 9           entry O          line   161 file /root/psi4conda/share/psi4/basis/6-311ppg_d_p_.gbs 
    atoms 3-4, 12        entry F          line   182 file /root/psi4conda/share/psi4/basis/6-311ppg_d_p_.gbs 
    atoms 5, 7-8, 10, 13 entry H          line    42 file /root/psi4conda/share/psi4/basis/6-311ppg_d_p_.gbs 


         ---------------------------------------------------------
                                   SCF
            by Justin Turney, Rob Parrish, Andy Simmonett
                             and Daniel Smith
                              RKS Reference
                       32 Threads,    500 MiB Core
         ---------------------------------------------------------

  ==> Geometry <==

    Molecular point group: c1
    Full point group: C1

    Geometry (in Angstrom), charge = 0, multiplicity = 1:

       Center              X                  Y                   Z               Mass       
    ------------   -----------------  -----------------  -----------------  -----------------
         C           -0.093383503400    -0.619086388816    -0.835845046891    12.000000000000
         O           -1.113052971219    -0.745038751298    -1.444194575280    15.994914619560
         F            1.037542759129     0.012883721548     1.149487059039    18.998403224000
         F           -1.123244930533     0.039567050715     1.211196270504    18.998403224000
         H            1.240348352781     3.142037490901    -1.930723027963     1.007825032070
         C            1.261728648081     2.082116844989    -1.668362677192    12.000000000000
         H            1.293185510075     1.485017112004    -2.586124513788     1.007825032070
         H            2.157753594935     1.884512088405    -1.081426809037     1.007825032070
         O            0.154592281284     1.727066456646    -0.851859835017    15.994914619560
         H           -0.667830023633     1.885334361766    -1.326481930270     1.007825032070
         C           -0.071197402611    -0.577346509115     0.699575036981    12.000000000000
         F           -0.062219060804    -1.846568090740     1.147563614278    18.998403224000
         H            0.912906570944    -0.707364342644    -1.281334344903     1.007825032070

  Running in c1 symmetry.

  Rotational constants: A =      0.09714  B =      0.04632  C =      0.03976 [cm^-1]
  Rotational constants: A =   2912.16641  B =   1388.49112  C =   1191.91040 [MHz]
  Nuclear repulsion =  428.491389018968675

  Charge       = 0
  Multiplicity = 1
  Electrons    = 66
  Nalpha       = 33
  Nbeta        = 33

  ==> Algorithm <==

  SCF Algorithm Type is DF.
  DIIS enabled.
  MOM disabled.
  Fractional occupation disabled.
  Guess Type is READ.
  Energy threshold   = 1.00e-08
  Density threshold  = 1.00e-08
  Integral threshold = 0.00e+00

  ==> Primary Basis <==

  Basis Set: 6-311++G(D,P)
    Blend: 6-311++G(D,P)
    Number of shells: 105
    Number of basis function: 211
    Number of Cartesian functions: 219
    Spherical Harmonics?: true
    Max angular momentum: 2

  ==> DFT Potential <==

   => Composite Functional: M06-2X <= 

    Hybrid M06-2X Meta-GGA XC Functional

    Y. Zhao and D. G. Truhlar,  Theor. Chem. Acc., 120, 215, 2008


    Deriv               =              1
    GGA                 =           TRUE
    Meta                =           TRUE

    Exchange Hybrid     =           TRUE
    MP2 Hybrid          =          FALSE

   => Exchange Functionals <=

    1.0000   XC_HYB_MGGA_X_M06_2X

   => Exact (HF) Exchange <=

    0.5400               HF 

   => Correlation Functionals <=

    1.0000   XC_MGGA_C_M06_2X

   => Molecular Quadrature <=

    Radial Scheme       =       TREUTLER
    Pruning Scheme      =           FLAT
    Nuclear Scheme      =       TREUTLER

    BS radius alpha     =              1
    Pruning alpha       =              1
    Radial Points       =             75
    Spherical Points    =            302
    Total Points        =         294450
    Total Blocks        =           2244
    Max Points          =            256
    Max Functions       =            197

   => Loading Basis Set <=

    Name: (6-311++G(D,P) AUX)
    Role: JKFIT
    Keyword: DF_BASIS_SCF
    atoms 1, 6, 11       entry C          line   162 file /root/psi4conda/share/psi4/basis/aug-cc-pvtz-jkfit.gbs 
    atoms 2, 9           entry O          line   286 file /root/psi4conda/share/psi4/basis/aug-cc-pvtz-jkfit.gbs 
    atoms 3-4, 12        entry F          line   348 file /root/psi4conda/share/psi4/basis/aug-cc-pvtz-jkfit.gbs 
    atoms 5, 7-8, 10, 13 entry H          line    70 file /root/psi4conda/share/psi4/basis/aug-cc-pvtz-jkfit.gbs 

  Reading orbitals from file 180, no projection.

  ==> Pre-Iterations <==

   -------------------------------------------------------
    Irrep   Nso     Nmo     Nalpha   Nbeta   Ndocc  Nsocc
   -------------------------------------------------------
     A        211     211       0       0       0       0
   -------------------------------------------------------
    Total     211     211      33      33      33       0
   -------------------------------------------------------

  ==> Integral Setup <==

  DFHelper Memory: AOs need 0.430 [GiB]; user supplied 0.366 [GiB]. Turning off in-core AOs.

  ==> MemDFJK: Density-Fitted J/K Matrices <==

    J tasked:                   Yes
    K tasked:                   Yes
    wK tasked:                   No
    OpenMP threads:              32
    Memory (MB):                375
    Algorithm:                 Disk
    Schwarz Cutoff:           1E-12
    Mask sparsity (%):       7.9917
    Fitting Condition:        1E-12

   => Auxiliary Basis Set <=

  Basis Set: (6-311++G(D,P) AUX)
    Blend: AUG-CC-PVTZ-JKFIT
    Number of shells: 310
    Number of basis function: 1062
    Number of Cartesian functions: 1323
    Spherical Harmonics?: true
    Max angular momentum: 4

  Minimum eigenvalue in the overlap matrix is 7.4233216234E-05.
  Using Symmetric Orthogonalization.

  SCF Guess: Orbitals guess was supplied from a previous computation.

  ==> Iterations <==

                           Total Energy        Delta E     RMS |[F,P]|

   @DF-RKS iter   0:  -567.24495595142912   -5.67245e+02   4.33337e-03 
   @DF-RKS iter   1:  -567.24700344524558   -2.04749e-03   5.27036e-04 
   @DF-RKS iter   2:  -567.24730229303509   -2.98848e-04   3.70783e-04 DIIS
   @DF-RKS iter   3:  -567.24739190365051   -8.96106e-05   1.84922e-04 DIIS
   @DF-RKS iter   4:  -567.24741345834218   -2.15547e-05   6.85010e-05 DIIS
   @DF-RKS iter   5:  -567.24741667971614   -3.22137e-06   2.04581e-05 DIIS
   @DF-RKS iter   6:  -567.24741694526131   -2.65545e-07   6.10655e-06 DIIS
   @DF-RKS iter   7:  -567.24741698392916   -3.86678e-08   1.66107e-06 DIIS
   @DF-RKS iter   8:  -567.24741699050151   -6.57235e-09   8.23737e-07 DIIS
   @DF-RKS iter   9:  -567.24741699141578   -9.14270e-10   2.82940e-07 DIIS
   @DF-RKS iter  10:  -567.24741699172068   -3.04908e-10   1.16312e-07 DIIS
   @DF-RKS iter  11:  -567.24741699176616   -4.54747e-11   3.83308e-08 DIIS
   @DF-RKS iter  12:  -567.24741699176911   -2.95586e-12   1.16346e-08 DIIS
   @DF-RKS iter  13:  -567.24741699176968   -5.68434e-13   5.13947e-09 DIIS

  ==> Post-Iterations <==

    Orbital Energies [Eh]
    ---------------------

    Doubly Occupied:                                                      

       1A    -25.286429     2A    -25.286313     3A    -25.286073  
       4A    -19.658727     5A    -19.655811     6A    -10.806621  
       7A    -10.672020     8A    -10.603621     9A     -1.481174  
      10A     -1.388879    11A     -1.384908    12A     -1.216967  
      13A     -1.176600    14A     -0.865503    15A     -0.805646  
      16A     -0.761971    17A     -0.707321    18A     -0.704627  
      19A     -0.655753    20A     -0.617730    21A     -0.585924  
      22A     -0.584485    23A     -0.568806    24A     -0.557316  
      25A     -0.543545    26A     -0.537371    27A     -0.526307  
      28A     -0.521643    29A     -0.519470    30A     -0.488665  
      31A     -0.438901    32A     -0.382741    33A     -0.366867  

    Virtual:                                                              

      34A     -0.014510    35A     -0.010066    36A      0.007117  
      37A      0.017447    38A      0.025203    39A      0.044238  
      40A      0.052707    41A      0.060873    42A      0.066110  
      43A      0.070140    44A      0.091767    45A      0.099605  
      46A      0.103916    47A      0.110513    48A      0.120022  
      49A      0.131064    50A      0.136584    51A      0.151991  
      52A      0.181191    53A      0.182802    54A      0.196136  
      55A      0.203392    56A      0.225599    57A      0.231261  
      58A      0.239000    59A      0.244655    60A      0.257954  
      61A      0.263373    62A      0.275096    63A      0.283878  
      64A      0.289517    65A      0.304613    66A      0.306166  
      67A      0.321421    68A      0.328815    69A      0.332193  
      70A      0.339395    71A      0.350403    72A      0.366031  
      73A      0.370897    74A      0.379537    75A      0.389140  
      76A      0.400221    77A      0.406980    78A      0.418989  
      79A      0.427182    80A      0.453064    81A      0.466542  
      82A      0.486631    83A      0.501317    84A      0.550574  
      85A      0.576127    86A      0.597132    87A      0.615287  
      88A      0.639174    89A      0.651749    90A      0.680334  
      91A      0.687350    92A      0.690693    93A      0.717228  
      94A      0.725219    95A      0.746465    96A      0.797051  
      97A      0.916092    98A      0.964740    99A      1.013704  
     100A      1.034463   101A      1.075340   102A      1.111229  
     103A      1.151573   104A      1.160268   105A      1.194636  
     106A      1.219553   107A      1.242557   108A      1.281753  
     109A      1.320685   110A      1.353231   111A      1.381040  
     112A      1.387537   113A      1.442664   114A      1.449916  
     115A      1.460797   116A      1.473111   117A      1.485441  
     118A      1.501659   119A      1.507846   120A      1.529795  
     121A      1.536762   122A      1.550040   123A      1.569326  
     124A      1.587817   125A      1.608233   126A      1.635348  
     127A      1.673093   128A      1.694327   129A      1.719775  
     130A      1.730671   131A      1.750136   132A      1.797209  
     133A      1.825443   134A      1.870021   135A      1.928893  
     136A      1.969055   137A      2.010893   138A      2.014782  
     139A      2.030498   140A      2.067057   141A      2.077239  
     142A      2.150293   143A      2.222966   144A      2.272191  
     145A      2.357625   146A      2.441713   147A      2.477121  
     148A      2.489602   149A      2.535572   150A      2.538705  
     151A      2.597059   152A      2.666684   153A      2.738741  
     154A      2.835956   155A      2.892649   156A      2.914366  
     157A      2.929622   158A      3.011529   159A      3.017677  
     160A      3.041147   161A      3.065696   162A      3.180394  
     163A      3.253302   164A      3.317058   165A      3.402894  
     166A      3.491097   167A      3.570000   168A      3.654409  
     169A      3.779251   170A      3.800685   171A      3.820131  
     172A      3.835897   173A      3.838162   174A      3.857717  
     175A      3.862098   176A      3.867596   177A      3.888586  
     178A      3.960295   179A      3.992047   180A      4.026286  
     181A      4.049690   182A      4.080716   183A      4.220766  
     184A      4.293032   185A      4.302844   186A      4.677702  
     187A      4.991419   188A      5.002245   189A      5.141875  
     190A      5.219581   191A      5.241541   192A      5.529260  
     193A      5.720899   194A      5.786822   195A      6.425870  
     196A      6.452603   197A      6.490954   198A      6.497731  
     199A      6.507166   200A      6.538673   201A      6.592064  
     202A      6.887320   203A      6.907295   204A     23.594190  
     205A     23.928279   206A     23.982082   207A     49.990461  
     208A     50.072389   209A     66.880618   210A     66.888616  
     211A     66.943354  

    Final Occupation by Irrep:
              A 
    DOCC [    33 ]

  Energy converged.

  @DF-RKS Final Energy:  -567.24741699176968

   => Energetics <=

    Nuclear Repulsion Energy =            428.4913890189686754
    One-Electron Energy =               -1633.7344382835178749
    Two-Electron Energy =                 670.0081543027380349
    DFT Exchange-Correlation Energy =     -32.0125220299584896
    Empirical Dispersion Energy =           0.0000000000000000
    VV10 Nonlocal Energy =                  0.0000000000000000
    Total Energy =                       -567.2474169917696827



Properties will be evaluated at   0.000000,   0.000000,   0.000000 [a0]

Properties computed using the SCF density matrix

  Nuclear Dipole Moment: [e a0]
     X:     4.7626      Y:     8.9059      Z:   -11.0135

  Electronic Dipole Moment: [e a0]
     X:    -3.9436      Y:    -8.1610      Z:    10.0642

  Dipole Moment: [e a0]
     X:     0.8191      Y:     0.7449      Z:    -0.9493     Total:     1.4584

  Dipole Moment: [D]
     X:     2.0819      Y:     1.8933      Z:    -2.4130     Total:     3.7069


*** tstop() called on localhost.localdomain at Mon May 13 10:57:54 2019
Module time:
	user time   =     339.69 seconds =       5.66 minutes
	system time =      13.48 seconds =       0.22 minutes
	total time  =         12 seconds =       0.20 minutes
Total time:
	user time   =     818.29 seconds =      13.64 minutes
	system time =      36.40 seconds =       0.61 minutes
	total time  =         31 seconds =       0.52 minutes

*** tstart() called on localhost.localdomain
*** at Mon May 13 10:57:54 2019


         ------------------------------------------------------------
                                   SCF GRAD                          
                          Rob Parrish, Justin Turney,                
                       Andy Simmonett, and Alex Sokolov              
         ------------------------------------------------------------

  ==> Geometry <==

    Molecular point group: c1
    Full point group: C1

    Geometry (in Angstrom), charge = 0, multiplicity = 1:

       Center              X                  Y                   Z               Mass       
    ------------   -----------------  -----------------  -----------------  -----------------
         C           -0.093383503400    -0.619086388816    -0.835845046891    12.000000000000
         O           -1.113052971219    -0.745038751298    -1.444194575280    15.994914619560
         F            1.037542759129     0.012883721548     1.149487059039    18.998403224000
         F           -1.123244930533     0.039567050715     1.211196270504    18.998403224000
         H            1.240348352781     3.142037490901    -1.930723027963     1.007825032070
         C            1.261728648081     2.082116844989    -1.668362677192    12.000000000000
         H            1.293185510075     1.485017112004    -2.586124513788     1.007825032070
         H            2.157753594935     1.884512088405    -1.081426809037     1.007825032070
         O            0.154592281284     1.727066456646    -0.851859835017    15.994914619560
         H           -0.667830023633     1.885334361766    -1.326481930270     1.007825032070
         C           -0.071197402611    -0.577346509115     0.699575036981    12.000000000000
         F           -0.062219060804    -1.846568090740     1.147563614278    18.998403224000
         H            0.912906570944    -0.707364342644    -1.281334344903     1.007825032070

  Nuclear repulsion =  428.491389018968675

  ==> Basis Set <==

  Basis Set: 6-311++G(D,P)
    Blend: 6-311++G(D,P)
    Number of shells: 105
    Number of basis function: 211
    Number of Cartesian functions: 219
    Spherical Harmonics?: true
    Max angular momentum: 2

  ==> DFJKGrad: Density-Fitted SCF Gradients <==

    Gradient:                    1
    J tasked:                  Yes
    K tasked:                  Yes
    wK tasked:                  No
    OpenMP threads:             32
    Integrals threads:          32
    Memory (MB):               375
    Schwarz Cutoff:          0E+00
    Fitting Condition:       1E-12

   => Auxiliary Basis Set <=

  Basis Set: (6-311++G(D,P) AUX)
    Blend: AUG-CC-PVTZ-JKFIT
    Number of shells: 310
    Number of basis function: 1062
    Number of Cartesian functions: 1323
    Spherical Harmonics?: true
    Max angular momentum: 4

  ==> DFT Potential <==

   => Composite Functional: M06-2X <= 

    Hybrid M06-2X Meta-GGA XC Functional

    Y. Zhao and D. G. Truhlar,  Theor. Chem. Acc., 120, 215, 2008


    Deriv               =              1
    GGA                 =           TRUE
    Meta                =           TRUE

    Exchange Hybrid     =           TRUE
    MP2 Hybrid          =          FALSE

   => Exchange Functionals <=

    1.0000   XC_HYB_MGGA_X_M06_2X

   => Exact (HF) Exchange <=

    0.5400               HF 

   => Correlation Functionals <=

    1.0000   XC_MGGA_C_M06_2X

   => Molecular Quadrature <=

    Radial Scheme       =       TREUTLER
    Pruning Scheme      =           FLAT
    Nuclear Scheme      =       TREUTLER

    BS radius alpha     =              1
    Pruning alpha       =              1
    Radial Points       =             75
    Spherical Points    =            302
    Total Points        =         294450
    Total Blocks        =           2244
    Max Points          =            256
    Max Functions       =            197


  -Total Gradient:
     Atom            X                  Y                   Z
    ------   -----------------  -----------------  -----------------
       1        0.002737152739     0.011052344613     0.001272082018
       2       -0.001720683998    -0.000822238826    -0.000844469560
       3       -0.000937191562     0.001135858904     0.000052354421
       4        0.001171019352     0.000408411473     0.000368018575
       5       -0.000093841647    -0.000202330580    -0.000105949757
       6        0.000678686559    -0.000779827787    -0.000130214210
       7       -0.000050744600    -0.000040913982    -0.000133360134
       8        0.000107524718     0.000058217345    -0.000041456118
       9       -0.001033798700    -0.003224210958     0.000032071569
      10       -0.000730192974    -0.000901685235    -0.000123196481
      11       -0.000576153163    -0.001857483377    -0.001107122126
      12        0.000083763791    -0.002292936770     0.000167417200
      13        0.000260205616    -0.002496283070     0.000750128867


*** tstop() called on localhost.localdomain at Mon May 13 10:57:58 2019
Module time:
	user time   =     101.12 seconds =       1.69 minutes
	system time =       4.34 seconds =       0.07 minutes
	total time  =          4 seconds =       0.07 minutes
Total time:
	user time   =     919.48 seconds =      15.32 minutes
	system time =      40.75 seconds =       0.68 minutes
	total time  =         35 seconds =       0.58 minutes

			-----------------------------------------
			 OPTKING 2.0: for geometry optimizations 
			  - R.A. King,  Bethel University        
			-----------------------------------------

	Previous internal coordinate definitions found.
	---Fragment 1 Geometry and Gradient---
	 C          -0.1764692468       -1.1699037275       -1.5795182282
	 O          -2.1033652870       -1.4079191983       -2.7291322299
	 F           1.9606716659        0.0243467053        2.1722157349
	 F          -2.1226252989        0.0747708897        2.2888292444
	 H           2.3439186961        5.9375903571       -3.6485377613
	 C           2.3843215989        3.9346306137       -3.1527485502
	 H           2.4437664531        2.8062756443       -4.8870670766
	 H           4.0775633567        3.5612117412       -2.0436005018
	 O           0.2921370739        3.2636826164       -1.6097817918
	 H          -1.2620158480        3.5627656127       -2.5066875684
	 C          -0.1345435923       -1.0910267860        1.3220052293
	 F          -0.1175769852       -3.4895079772        2.1685809510
	 H           1.7251434040       -1.3367248838       -2.4213709965
	             0.0027371527        0.0110523446        0.0012720820
	            -0.0017206840       -0.0008222388       -0.0008444696
	            -0.0009371916        0.0011358589        0.0000523544
	             0.0011710194        0.0004084115        0.0003680186
	            -0.0000938416       -0.0002023306       -0.0001059498
	             0.0006786866       -0.0007798278       -0.0001302142
	            -0.0000507446       -0.0000409140       -0.0001333601
	             0.0001075247        0.0000582173       -0.0000414561
	            -0.0010337987       -0.0032242110        0.0000320716
	            -0.0007301930       -0.0009016852       -0.0001231965
	            -0.0005761532       -0.0018574834       -0.0011071221
	             0.0000837638       -0.0022929368        0.0001674172
	             0.0002602056       -0.0024962831        0.0007501289

	---Fragment 1 Intrafragment Coordinates---
	 - Coordinate -           - BOHR/RAD -       - ANG/DEG -
	 R(1,2)           =         2.256367	       1.194018
	 R(1,9)           =         4.458385	       2.359276
	 R(1,11)          =         2.902898	       1.536148
	 R(1,13)          =         2.086307	       1.104026
	 R(3,11)          =         2.521278	       1.334203
	 R(4,11)          =         2.499260	       1.322552
	 R(5,6)           =         2.063804	       1.092118
	 R(6,7)           =         2.069923	       1.095356
	 R(6,8)           =         2.058329	       1.089221
	 R(6,9)           =         2.684800	       1.420735
	 R(9,10)          =         1.819143	       0.962649
	 R(11,12)         =         2.543559	       1.345993
	 B(1,9,6)         =         1.911684	     109.531417
	 B(1,9,10)        =         1.647918	      94.418726
	 B(1,11,3)        =         1.940219	     111.166343
	 B(1,11,4)        =         1.969091	     112.820578
	 B(1,11,12)       =         1.882991	     107.887437
	 B(2,1,9)         =         1.763181	     101.022833
	 B(2,1,11)        =         2.122873	     121.631666
	 B(2,1,13)        =         2.170451	     124.357687
	 B(3,11,4)        =         1.901007	     108.919654
	 B(3,11,12)       =         1.874832	     107.419962
	 B(4,11,12)       =         1.892733	     108.445594
	 B(5,6,7)         =         1.905331	     109.167405
	 B(5,6,8)         =         1.898241	     108.761218
	 B(5,6,9)         =         1.944799	     111.428782
	 B(6,9,10)        =         1.919115	     109.957196
	 B(7,6,8)         =         1.906011	     109.206397
	 B(7,6,9)         =         1.947305	     111.572377
	 B(8,6,9)         =         1.860876	     106.620331
	 B(9,1,11)        =         1.549041	      88.753496
	 B(9,1,13)        =         1.551769	      88.909839
	 B(11,1,13)       =         1.973961	     113.099610
	 D(1,9,6,5)       =         2.859160	     163.817826
	 D(1,9,6,7)       =         0.724505	      41.511101
	 D(1,9,6,8)       =        -1.355163	     -77.645118
	 D(2,1,9,6)       =        -1.941481	    -111.238679
	 D(2,1,9,10)      =         0.030652	       1.756203
	 D(2,1,11,3)      =        -2.766444	    -158.505591
	 D(2,1,11,4)      =        -0.625028	     -35.811470
	 D(2,1,11,12)     =         1.465351	      83.958423
	 D(3,11,1,9)      =        -0.982833	     -56.312203
	 D(3,11,1,13)     =         0.557989	      31.970394
	 D(4,11,1,9)      =         1.158583	      66.381918
	 D(4,11,1,13)     =         2.699405	     154.664515
	 D(5,6,9,10)      =         1.070868	      61.356245
	 D(6,9,1,11)      =         2.212069	     126.742215
	 D(6,9,1,13)      =         0.237480	      13.606599
	 D(7,6,9,10)      =        -1.063787	     -60.950480
	 D(8,6,9,10)      =         3.139730	     179.893301
	 D(9,1,11,12)     =        -3.034223	    -173.848189
	 D(10,9,1,11)     =        -2.098984	    -120.262903
	 D(10,9,1,13)     =         2.209613	     126.601481
	 D(12,11,1,13)    =        -1.493401	     -85.565592

	Current energy   :      -567.2474169918

	Energy change for the previous step:
		Projected    :        -0.0040356081
		Actual       :        -0.0022845822

	Performing BFGS update.
	Previous computed or guess Hessian on step 1.
	Steps to be used in Hessian update: 1
	Taking RFO optimization step.
	Going to follow RFO solution 1.
	Using RFO vector 1.
	Norm of target step-size    0.32197
	Projected energy change by RFO approximation:        -0.0010081628

	Back-transformation to cartesian coordinates...
	Successfully converged to displaced geometry.

	--- Internal Coordinate Step in ANG or DEG, aJ/ANG or AJ/DEG ---
	 ---------------------------------------------------------------------------
	   Coordinate                Previous        Force       Change         New 
	   ----------                --------       ------       ------       ------
	    1 R(1,2)          =      1.194018    -0.016324    -0.001228     1.192790
	    2 R(1,9)          =      2.359276     0.042472     0.111591     2.470866
	    3 R(1,11)         =      1.536148     0.005463     0.000815     1.536963
	    4 R(1,13)         =      1.104026    -0.001294    -0.000411     1.103615
	    5 R(3,11)         =      1.334203     0.002142    -0.000328     1.333875
	    6 R(4,11)         =      1.322552     0.005096     0.000508     1.323059
	    7 R(5,6)          =      1.092118     0.001336     0.000492     1.092610
	    8 R(6,7)          =      1.095356    -0.001094    -0.000363     1.094993
	    9 R(6,8)          =      1.089221    -0.000441    -0.000101     1.089120
	   10 R(6,9)          =      1.420735    -0.004251     0.000201     1.420936
	   11 R(9,10)         =      0.962649    -0.004446    -0.001020     0.961629
	   12 R(11,12)        =      1.345993    -0.018308    -0.002210     1.343783
	   13 B(1,9,6)        =    109.531417     0.000170     1.477854   111.009271
	   14 B(1,9,10)       =     94.418726     0.000020     1.145025    95.563751
	   15 B(1,11,3)       =    111.166343    -0.000003    -0.567362   110.598982
	   16 B(1,11,4)       =    112.820578    -0.000086    -0.561553   112.259025
	   17 B(1,11,12)      =    107.887437     0.000076     1.085307   108.972744
	   18 B(2,1,9)        =    101.022833     0.000133     0.175039   101.197872
	   19 B(2,1,11)       =    121.631666     0.000026    -0.037948   121.593718
	   20 B(2,1,13)       =    124.357687    -0.000032     0.042966   124.400653
	   21 B(3,11,4)       =    108.919654     0.000099     0.863866   109.783520
	   22 B(3,11,12)      =    107.419962    -0.000060    -0.345994   107.073968
	   23 B(4,11,12)      =    108.445594    -0.000028    -0.468081   107.977513
	   24 B(5,6,7)        =    109.167405     0.000006     0.105909   109.273314
	   25 B(5,6,8)        =    108.761218     0.000000    -0.018465   108.742752
	   26 B(5,6,9)        =    111.428782     0.000004     0.074794   111.503576
	   27 B(6,9,10)       =    109.957196    -0.000050    -0.272353   109.684843
	   28 B(7,6,8)        =    109.206397     0.000001    -0.015641   109.190755
	   29 B(7,6,9)        =    111.572377     0.000005     0.066627   111.639004
	   30 B(8,6,9)        =    106.620331    -0.000017    -0.224828   106.395503
	   31 B(9,1,11)       =     88.753496    -0.000340    -3.171118    85.582378
	   32 B(9,1,13)       =     88.909839     0.000006    -2.105877    86.803962
	   33 B(11,1,13)      =    113.099610     0.000041     0.701929   113.801539
	   34 D(1,9,6,5)      =    163.817826     0.000011     1.846862   165.664689
	   35 D(1,9,6,7)      =     41.511101     0.000008     1.608354    43.119454
	   36 D(1,9,6,8)      =    -77.645118     0.000010     1.729017   -75.916101
	   37 D(2,1,9,6)      =   -111.238679    -0.000002    -1.713323  -112.952002
	   38 D(2,1,9,10)     =      1.756203    -0.000003    -1.132991     0.623212
	   39 D(2,1,11,3)     =   -158.505591     0.000009    -1.101421  -159.607012
	   40 D(2,1,11,4)     =    -35.811470     0.000024    -0.802651   -36.614121
	   41 D(2,1,11,12)    =     83.958423     0.000015    -1.010368    82.948055
	   42 D(3,11,1,9)     =    -56.312203    -0.000003    -2.857893   -59.170096
	   43 D(3,11,1,13)    =     31.970394    -0.000036    -6.602901    25.367492
	   44 D(4,11,1,9)     =     66.381918     0.000011    -2.559123    63.822796
	   45 D(4,11,1,13)    =    154.664515    -0.000021    -6.304131   148.360384
	   46 D(5,6,9,10)     =     61.356245    -0.000006    -0.032931    61.323314
	   47 D(6,9,1,11)     =    126.742215     0.000006    -1.050429   125.691786
	   48 D(6,9,1,13)     =     13.606599    -0.000005    -2.101861    11.504738
	   49 D(7,6,9,10)     =    -60.950480    -0.000010    -0.271439   -61.221920
	   50 D(8,6,9,10)     =    179.893301    -0.000008    -0.150776   179.742525
	   51 D(9,1,11,12)    =   -173.848189     0.000003    -2.766841  -176.615029
	   52 D(10,9,1,11)    =   -120.262903     0.000005    -0.470097  -120.733000
	   53 D(10,9,1,13)    =    126.601481    -0.000007    -1.521529   125.079952
	   54 D(12,11,1,13)   =    -85.565592    -0.000029    -6.511849   -92.077441
	 ---------------------------------------------------------------------------
	Successfully symmetrized geometry.

  ==> Convergence Check <==

  Measures of convergence in internal coordinates in au.
  Criteria marked as inactive (o), active & met (*), and active & unmet ( ).
  ---------------------------------------------------------------------------------------------
   Step     Total Energy     Delta E     MAX Force     RMS Force      MAX Disp      RMS Disp   
  ---------------------------------------------------------------------------------------------
    Convergence Criteria    1.00e-06 *    3.00e-04 *             o    1.20e-03 *             o
  ---------------------------------------------------------------------------------------------
      2    -567.24741699   -2.28e-03      5.16e-03      1.25e-03 o    2.11e-01      4.38e-02 o  ~
  ---------------------------------------------------------------------------------------------

	Writing optimization data to binary file.
	Structure for next step:
	Cartesian Geometry (in Angstrom)
	    C    -0.1161410151  -0.7145553504  -0.8482162169
	    O    -1.1554188937  -0.8301353306  -1.4220546760
	    F     1.1044890205  -0.0583354771   1.0658055334
	    F    -1.0612130093   0.0855205419   1.1815646239
	    H     1.2388684318   3.2052827954  -1.8609788234
	    C     1.2575697642   2.1330244504  -1.6519112526
	    H     1.2797899157   1.5808106029  -2.5972027498
	    H     2.1566903380   1.9032583340  -1.0818475057
	    O     0.1579479932   1.7410533254  -0.8418190208
	    H    -0.6658183026   1.9280096342  -1.3013700451
	    C    -0.0497349902  -0.6068366545   0.6835284322
	    F    -0.0932394099  -1.8421459253   1.2106634681
	    H     0.8733399824  -0.7618199019  -1.3346925468
			--------------------------
			 OPTKING Finished Execution 
			--------------------------

    Structure for next step:
    Molecular point group: c1
    Full point group: C1

    Geometry (in Angstrom), charge = 0, multiplicity = 1:

    C           -0.124737243457    -0.697214711789    -0.843966179081
    O           -1.164015122090    -0.812794692053    -1.417804638250
    F            1.095892792136    -0.040994838470     1.070055571168
    F           -1.069809237651     0.102861180475     1.185814661699
    H            1.230272203431     3.222623433995    -1.856728785648
    C            1.248973535883     2.150365088962    -1.647661214831
    H            1.271193687333     1.598151241522    -2.592952712058
    H            2.148094109613     1.920598972633    -1.077597467957
    O            0.149351764884     1.758393963970    -0.837568983021
    H           -0.674414530994     1.945350272791    -1.297120007275
    C           -0.058331218550    -0.589496015933     0.687778470019
    F           -0.101835638240    -1.824805286684     1.214913505892
    H            0.864743754057    -0.744479263310    -1.330442509028

gradient() will perform analytic gradient computation.

*** tstart() called on localhost.localdomain
*** at Mon May 13 10:57:58 2019

   => Loading Basis Set <=

    Name: 6-311++G(D,P)
    Role: ORBITAL
    Keyword: BASIS
    atoms 1, 6, 11       entry C          line   119 file /root/psi4conda/share/psi4/basis/6-311ppg_d_p_.gbs 
    atoms 2, 9           entry O          line   161 file /root/psi4conda/share/psi4/basis/6-311ppg_d_p_.gbs 
    atoms 3-4, 12        entry F          line   182 file /root/psi4conda/share/psi4/basis/6-311ppg_d_p_.gbs 
    atoms 5, 7-8, 10, 13 entry H          line    42 file /root/psi4conda/share/psi4/basis/6-311ppg_d_p_.gbs 


         ---------------------------------------------------------
                                   SCF
            by Justin Turney, Rob Parrish, Andy Simmonett
                             and Daniel Smith
                              RKS Reference
                       32 Threads,    500 MiB Core
         ---------------------------------------------------------

  ==> Geometry <==

    Molecular point group: c1
    Full point group: C1

    Geometry (in Angstrom), charge = 0, multiplicity = 1:

       Center              X                  Y                   Z               Mass       
    ------------   -----------------  -----------------  -----------------  -----------------
         C           -0.124737243457    -0.697214711789    -0.843966179081    12.000000000000
         O           -1.164015122090    -0.812794692053    -1.417804638250    15.994914619560
         F            1.095892792136    -0.040994838470     1.070055571168    18.998403224000
         F           -1.069809237651     0.102861180475     1.185814661699    18.998403224000
         H            1.230272203431     3.222623433995    -1.856728785648     1.007825032070
         C            1.248973535883     2.150365088962    -1.647661214831    12.000000000000
         H            1.271193687333     1.598151241522    -2.592952712058     1.007825032070
         H            2.148094109613     1.920598972633    -1.077597467957     1.007825032070
         O            0.149351764884     1.758393963970    -0.837568983021    15.994914619560
         H           -0.674414530994     1.945350272791    -1.297120007275     1.007825032070
         C           -0.058331218550    -0.589496015933     0.687778470019    12.000000000000
         F           -0.101835638240    -1.824805286684     1.214913505892    18.998403224000
         H            0.864743754057    -0.744479263310    -1.330442509028     1.007825032070

  Running in c1 symmetry.

  Rotational constants: A =      0.09599  B =      0.04589  C =      0.03921 [cm^-1]
  Rotational constants: A =   2877.65264  B =   1375.62439  C =   1175.44304 [MHz]
  Nuclear repulsion =  426.911621540035867

  Charge       = 0
  Multiplicity = 1
  Electrons    = 66
  Nalpha       = 33
  Nbeta        = 33

  ==> Algorithm <==

  SCF Algorithm Type is DF.
  DIIS enabled.
  MOM disabled.
  Fractional occupation disabled.
  Guess Type is READ.
  Energy threshold   = 1.00e-08
  Density threshold  = 1.00e-08
  Integral threshold = 0.00e+00

  ==> Primary Basis <==

  Basis Set: 6-311++G(D,P)
    Blend: 6-311++G(D,P)
    Number of shells: 105
    Number of basis function: 211
    Number of Cartesian functions: 219
    Spherical Harmonics?: true
    Max angular momentum: 2

  ==> DFT Potential <==

   => Composite Functional: M06-2X <= 

    Hybrid M06-2X Meta-GGA XC Functional

    Y. Zhao and D. G. Truhlar,  Theor. Chem. Acc., 120, 215, 2008


    Deriv               =              1
    GGA                 =           TRUE
    Meta                =           TRUE

    Exchange Hybrid     =           TRUE
    MP2 Hybrid          =          FALSE

   => Exchange Functionals <=

    1.0000   XC_HYB_MGGA_X_M06_2X

   => Exact (HF) Exchange <=

    0.5400               HF 

   => Correlation Functionals <=

    1.0000   XC_MGGA_C_M06_2X

   => Molecular Quadrature <=

    Radial Scheme       =       TREUTLER
    Pruning Scheme      =           FLAT
    Nuclear Scheme      =       TREUTLER

    BS radius alpha     =              1
    Pruning alpha       =              1
    Radial Points       =             75
    Spherical Points    =            302
    Total Points        =         294450
    Total Blocks        =           2263
    Max Points          =            256
    Max Functions       =            198

   => Loading Basis Set <=

    Name: (6-311++G(D,P) AUX)
    Role: JKFIT
    Keyword: DF_BASIS_SCF
    atoms 1, 6, 11       entry C          line   162 file /root/psi4conda/share/psi4/basis/aug-cc-pvtz-jkfit.gbs 
    atoms 2, 9           entry O          line   286 file /root/psi4conda/share/psi4/basis/aug-cc-pvtz-jkfit.gbs 
    atoms 3-4, 12        entry F          line   348 file /root/psi4conda/share/psi4/basis/aug-cc-pvtz-jkfit.gbs 
    atoms 5, 7-8, 10, 13 entry H          line    70 file /root/psi4conda/share/psi4/basis/aug-cc-pvtz-jkfit.gbs 

  Reading orbitals from file 180, no projection.

  ==> Pre-Iterations <==

   -------------------------------------------------------
    Irrep   Nso     Nmo     Nalpha   Nbeta   Ndocc  Nsocc
   -------------------------------------------------------
     A        211     211       0       0       0       0
   -------------------------------------------------------
    Total     211     211      33      33      33       0
   -------------------------------------------------------

  ==> Integral Setup <==

  DFHelper Memory: AOs need 0.429 [GiB]; user supplied 0.366 [GiB]. Turning off in-core AOs.

  ==> MemDFJK: Density-Fitted J/K Matrices <==

    J tasked:                   Yes
    K tasked:                   Yes
    wK tasked:                   No
    OpenMP threads:              32
    Memory (MB):                375
    Algorithm:                 Disk
    Schwarz Cutoff:           1E-12
    Mask sparsity (%):       8.0861
    Fitting Condition:        1E-12

   => Auxiliary Basis Set <=

  Basis Set: (6-311++G(D,P) AUX)
    Blend: AUG-CC-PVTZ-JKFIT
    Number of shells: 310
    Number of basis function: 1062
    Number of Cartesian functions: 1323
    Spherical Harmonics?: true
    Max angular momentum: 4

  Minimum eigenvalue in the overlap matrix is 7.7252848951E-05.
  Using Symmetric Orthogonalization.

  SCF Guess: Orbitals guess was supplied from a previous computation.

  ==> Iterations <==

                           Total Energy        Delta E     RMS |[F,P]|

   @DF-RKS iter   0:  -567.24230661639274   -5.67242e+02   5.98919e-03 
   @DF-RKS iter   1:  -567.24816954503535   -5.86293e-03   7.10475e-04 
   @DF-RKS iter   2:  -567.24840766532520   -2.38120e-04   6.99361e-04 DIIS
   @DF-RKS iter   3:  -567.24867834531392   -2.70680e-04   1.64661e-04 DIIS
   @DF-RKS iter   4:  -567.24870334722152   -2.50019e-05   5.82457e-05 DIIS
   @DF-RKS iter   5:  -567.24870552280606   -2.17558e-06   2.05845e-05 DIIS
   @DF-RKS iter   6:  -567.24870573480109   -2.11995e-07   5.75228e-06 DIIS
   @DF-RKS iter   7:  -567.24870575996613   -2.51650e-08   1.44105e-06 DIIS
   @DF-RKS iter   8:  -567.24870576492253   -4.95641e-09   5.97967e-07 DIIS
   @DF-RKS iter   9:  -567.24870576556430   -6.41762e-10   3.12244e-07 DIIS
   @DF-RKS iter  10:  -567.24870576582123   -2.56932e-10   9.06303e-08 DIIS
   @DF-RKS iter  11:  -567.24870576586363   -4.24052e-11   2.47215e-08 DIIS
   @DF-RKS iter  12:  -567.24870576586511   -1.47793e-12   1.53982e-08 DIIS
   @DF-RKS iter  13:  -567.24870576586488    2.27374e-13   2.82835e-09 DIIS

  ==> Post-Iterations <==

    Orbital Energies [Eh]
    ---------------------

    Doubly Occupied:                                                      

       1A    -25.286910     2A    -25.286012     3A    -25.285682  
       4A    -19.663120     5A    -19.651090     6A    -10.807175  
       7A    -10.672118     8A    -10.600730     9A     -1.481522  
      10A     -1.389644    11A     -1.384513    12A     -1.219744  
      13A     -1.172229    14A     -0.865531    15A     -0.802142  
      16A     -0.761996    17A     -0.708098    18A     -0.704325  
      19A     -0.656847    20A     -0.614015    21A     -0.587488  
      22A     -0.583577    23A     -0.569924    24A     -0.554284  
      25A     -0.541775    26A     -0.537806    27A     -0.522459  
      28A     -0.521457    29A     -0.520510    30A     -0.491197  
      31A     -0.435611    32A     -0.380579    33A     -0.369165  

    Virtual:                                                              

      34A     -0.019016    35A     -0.010338    36A      0.007561  
      37A      0.017068    38A      0.025496    39A      0.043855  
      40A      0.052492    41A      0.060602    42A      0.066589  
      43A      0.070060    44A      0.091722    45A      0.097826  
      46A      0.104331    47A      0.109509    48A      0.120463  
      49A      0.131748    50A      0.135800    51A      0.151640  
      52A      0.180941    53A      0.184051    54A      0.196240  
      55A      0.205908    56A      0.221279    57A      0.233077  
      58A      0.240243    59A      0.245922    60A      0.260441  
      61A      0.262050    62A      0.275860    63A      0.284307  
      64A      0.291181    65A      0.301905    66A      0.305541  
      67A      0.323371    68A      0.328265    69A      0.331105  
      70A      0.337289    71A      0.349657    72A      0.366836  
      73A      0.369577    74A      0.376321    75A      0.385663  
      76A      0.399633    77A      0.408070    78A      0.419194  
      79A      0.430061    80A      0.456878    81A      0.471938  
      82A      0.486744    83A      0.502811    84A      0.552521  
      85A      0.573711    86A      0.593980    87A      0.616869  
      88A      0.637428    89A      0.652577    90A      0.679731  
      91A      0.689950    92A      0.691682    93A      0.713775  
      94A      0.722530    95A      0.748276    96A      0.793351  
      97A      0.898369    98A      0.969081    99A      1.019273  
     100A      1.034084   101A      1.071788   102A      1.111230  
     103A      1.153109   104A      1.159512   105A      1.189726  
     106A      1.217937   107A      1.234458   108A      1.284782  
     109A      1.313222   110A      1.344186   111A      1.385903  
     112A      1.389973   113A      1.443320   114A      1.452083  
     115A      1.459969   116A      1.471121   117A      1.484453  
     118A      1.504887   119A      1.506872   120A      1.530740  
     121A      1.545117   122A      1.557137   123A      1.564129  
     124A      1.589771   125A      1.610124   126A      1.627178  
     127A      1.659462   128A      1.688397   129A      1.720756  
     130A      1.729088   131A      1.753472   132A      1.795513  
     133A      1.828536   134A      1.867719   135A      1.927213  
     136A      1.966862   137A      2.007261   138A      2.017673  
     139A      2.026340   140A      2.054824   141A      2.081576  
     142A      2.150857   143A      2.223268   144A      2.275702  
     145A      2.359018   146A      2.443771   147A      2.471773  
     148A      2.487742   149A      2.536534   150A      2.538605  
     151A      2.588139   152A      2.666203   153A      2.732709  
     154A      2.829216   155A      2.887893   156A      2.910281  
     157A      2.919916   158A      3.008108   159A      3.019987  
     160A      3.040261   161A      3.064119   162A      3.180335  
     163A      3.256936   164A      3.319856   165A      3.397757  
     166A      3.489859   167A      3.569887   168A      3.654290  
     169A      3.781512   170A      3.801550   171A      3.820389  
     172A      3.835932   173A      3.837884   174A      3.857441  
     175A      3.861292   176A      3.868091   177A      3.887562  
     178A      3.961061   179A      3.996593   180A      4.021445  
     181A      4.049737   182A      4.077160   183A      4.220539  
     184A      4.290738   185A      4.306642   186A      4.678948  
     187A      4.992830   188A      5.002467   189A      5.142987  
     190A      5.205758   191A      5.237691   192A      5.530766  
     193A      5.722846   194A      5.783084   195A      6.422111  
[...]

    Radial Scheme       =       TREUTLER
    Pruning Scheme      =           FLAT
    Nuclear Scheme      =       TREUTLER

    BS radius alpha     =              1
    Pruning alpha       =              1
    Radial Points       =             75
    Spherical Points    =            302
    Total Points        =         294450
    Total Blocks        =           2223
    Max Points          =            256
    Max Functions       =            200


  -Total Gradient:
     Atom            X                  Y                   Z
    ------   -----------------  -----------------  -----------------
       1       -0.000052309764     0.000007159497    -0.000028906640
       2       -0.000038883385    -0.000005232012    -0.000003700125
       3       -0.000098157927    -0.000002669662     0.000030763152
       4       -0.000077940717     0.000094531254     0.000013973446
       5       -0.000017984317     0.000005225678    -0.000010435790
       6       -0.000011966417     0.000002348594    -0.000000938916
       7       -0.000001970462    -0.000026304431    -0.000021612317
       8        0.000012060312    -0.000038784130    -0.000001368872
       9        0.000030085272    -0.000062872264    -0.000004252486
      10       -0.000050287092     0.000007075259    -0.000032241050
      11        0.000100378224    -0.000072393480    -0.000045977990
      12       -0.000051037056     0.000030151311    -0.000000632053
      13       -0.000023368569    -0.000011113013     0.000017359010


*** tstop() called on localhost.localdomain at Mon May 13 11:06:29 2019
Module time:
	user time   =     101.69 seconds =       1.69 minutes
	system time =       4.13 seconds =       0.07 minutes
	total time  =          4 seconds =       0.07 minutes
Total time:
	user time   =   14311.58 seconds =     238.53 minutes
	system time =     607.13 seconds =      10.12 minutes
	total time  =        546 seconds =       9.10 minutes

			-----------------------------------------
			 OPTKING 2.0: for geometry optimizations 
			  - R.A. King,  Bethel University        
			-----------------------------------------

	Previous internal coordinate definitions found.
	---Fragment 1 Geometry and Gradient---
	 C          -1.1529346483       -1.9692702082       -1.0533398109
	 O          -3.3674252671       -1.8171583670       -1.4252860884
	 F           2.5212396540       -0.4174962191        1.0134781721
	 F          -1.0264275273        1.3941491558        1.9466305485
	 H           1.7895134517        4.8278909196       -0.9747322333
	 C           2.3030882895        3.8233503341       -2.7060773096
	 H           2.4934932502        5.1675154571       -4.2625433648
	 H           4.1084532386        2.8834953768       -2.4134620377
	 O           0.5154978529        1.9043099949       -3.2904408373
	 H          -1.0966110776        2.6687930901       -3.6324927142
	 C           0.0435653290       -0.7883170672        1.3230121360
	 F          -0.2443183145       -2.3873775384        3.2668685835
	 H           0.1809747496       -3.0272921248       -2.2489958755
	            -0.0000523098        0.0000071595       -0.0000289066
	            -0.0000388834       -0.0000052320       -0.0000037001
	            -0.0000981579       -0.0000026697        0.0000307632
	            -0.0000779407        0.0000945313        0.0000139734
	            -0.0000179843        0.0000052257       -0.0000104358
	            -0.0000119664        0.0000023486       -0.0000009389
	            -0.0000019705       -0.0000263044       -0.0000216123
	             0.0000120603       -0.0000387841       -0.0000013689
	             0.0000300853       -0.0000628723       -0.0000042525
	            -0.0000502871        0.0000070753       -0.0000322411
	             0.0001003782       -0.0000723935       -0.0000459780
	            -0.0000510371        0.0000301513       -0.0000006321
	            -0.0000233686       -0.0000111130        0.0000173590

	---Fragment 1 Intrafragment Coordinates---
	 - Coordinate -           - BOHR/RAD -       - ANG/DEG -
	 R(1,2)           =         2.250656	       1.190996
	 R(1,9)           =         4.774192	       2.526394
	 R(1,11)          =         2.910895	       1.540379
	 R(1,13)          =         2.080461	       1.100933
	 R(3,11)          =         2.524320	       1.335812
	 R(4,11)          =         2.509371	       1.327902
	 R(5,6)           =         2.066499	       1.093544
	 R(6,7)           =         2.065338	       1.092930
	 R(6,8)           =         2.056282	       1.088137
	 R(6,9)           =         2.686946	       1.421870
	 R(9,10)          =         1.816681	       0.961346
	 R(11,12)         =         2.533466	       1.340652
	 B(1,9,6)         =         2.360391	     135.240462
	 B(1,9,10)        =         1.690623	      96.865581
	 B(1,11,3)        =         1.942218	     111.280893
	 B(1,11,4)        =         1.961091	     112.362216
	 B(1,11,12)       =         1.900325	     108.880621
	 B(2,1,9)         =         1.783987	     102.214900
	 B(2,1,11)        =         2.108227	     120.792537
	 B(2,1,13)        =         2.177609	     124.767785
	 B(3,11,4)        =         1.897825	     108.737365
	 B(3,11,12)       =         1.873744	     107.357639
	 B(4,11,12)       =         1.885798	     108.048249
	 B(5,6,7)         =         1.915515	     109.750913
	 B(5,6,8)         =         1.897748	     108.732925
	 B(5,6,9)         =         1.943412	     111.349291
	 B(6,9,10)        =         1.907917	     109.315571
	 B(7,6,8)         =         1.900506	     108.890952
	 B(7,6,9)         =         1.941485	     111.238915
	 B(8,6,9)         =         1.863575	     106.775011
	 B(9,1,11)        =         1.480392	      84.820202
	 B(9,1,13)        =         1.489963	      85.368570
	 B(11,1,13)       =         1.995386	     114.327187
	 D(1,9,6,5)       =        -1.019461	     -58.410834
	 D(1,9,6,7)       =         3.121081	     178.824780
	 D(1,9,6,8)       =         1.049679	      60.142152
	 D(2,1,9,6)       =         2.367369	     135.640266
	 D(2,1,9,10)      =         0.159845	       9.158438
	 D(2,1,11,3)      =        -2.783786	    -159.499178
	 D(2,1,11,4)      =        -0.650835	     -37.290078
	 D(2,1,11,12)     =         1.437520	      82.363839
	 D(3,11,1,9)      =        -1.018478	     -58.354473
	 D(3,11,1,13)     =         0.421990	      24.178255
	 D(4,11,1,9)      =         1.114473	      63.854627
	 D(4,11,1,13)     =         2.554941	     146.387355
	 D(5,6,9,10)      =         1.113891	      63.821275
	 D(6,9,1,11)      =         0.265669	      15.221741
	 D(6,9,1,13)      =        -1.741146	     -99.760335
	 D(7,6,9,10)      =        -1.028751	     -58.943110
	 D(8,6,9,10)      =        -3.100154	    -177.625739
	 D(9,1,11,12)     =        -3.080357	    -176.491456
	 D(10,9,1,11)     =        -1.941855	    -111.260088
	 D(10,9,1,13)     =         2.334515	     133.757837
	 D(12,11,1,13)    =        -1.639889	     -93.958728

	Current energy   :      -567.2518443795

	Energy change for the previous step:
		Projected    :         0.0000024879
		Actual       :         0.0000004717

	Performing BFGS update.
	Previous computed or guess Hessian on step 1.
	Steps to be used in Hessian update: 34 33
	Taking RFO optimization step.
	Going to follow RFO solution 1.
	Using RFO vector 1.
	Norm of target step-size    0.00317
	Projected energy change by RFO approximation:         0.0000001561

	Back-transformation to cartesian coordinates...
	Could not converge backtransformation.
	Using first guess instead.

	--- Internal Coordinate Step in ANG or DEG, aJ/ANG or AJ/DEG ---
	 ---------------------------------------------------------------------------
	   Coordinate                Previous        Force       Change         New 
	   ----------                --------       ------       ------       ------
	    1 R(1,2)          =      1.190996    -0.000080    -0.000007     1.190989
	    2 R(1,9)          =      2.526394     0.000123     0.000247     2.526641
	    3 R(1,11)         =      1.540379    -0.000145    -0.000033     1.540347
	    4 R(1,13)         =      1.100933     0.000011    -0.000003     1.100930
	    5 R(3,11)         =      1.335812     0.000539     0.000104     1.335916
	    6 R(4,11)         =      1.327902    -0.000800    -0.000123     1.327779
	    7 R(5,6)          =      1.093544    -0.000128    -0.000018     1.093526
	    8 R(6,7)          =      1.092930    -0.000014     0.000002     1.092932
	    9 R(6,8)          =      1.088137    -0.000232    -0.000025     1.088113
	   10 R(6,9)          =      1.421870    -0.000155    -0.000047     1.421823
	   11 R(9,10)         =      0.961346    -0.000410    -0.000043     0.961303
	   12 R(11,12)        =      1.340652     0.000105     0.000001     1.340653
	   13 B(1,9,6)        =    135.240462     0.000001     0.008449   135.248910
	   14 B(1,9,10)       =     96.865581    -0.000000     0.027740    96.893322
	   15 B(1,11,3)       =    111.280893    -0.000002    -0.013744   111.267149
	   16 B(1,11,4)       =    112.362216     0.000000     0.001366   112.363583
	   17 B(1,11,12)      =    108.880621    -0.000000     0.003834   108.884455
	   18 B(2,1,9)        =    102.214900    -0.000002    -0.009257   102.205643
	   19 B(2,1,11)       =    120.792537    -0.000000    -0.001065   120.791473
	   20 B(2,1,13)       =    124.767785    -0.000000    -0.000600   124.767185
	   21 B(3,11,4)       =    108.737365     0.000001     0.001666   108.739031
	   22 B(3,11,12)      =    107.357639     0.000001     0.000502   107.358142
	   23 B(4,11,12)      =    108.048249     0.000001     0.006933   108.055181
	   24 B(5,6,7)        =    109.750913     0.000000    -0.001067   109.749846
	   25 B(5,6,8)        =    108.732925    -0.000000    -0.004571   108.728354
	   26 B(5,6,9)        =    111.349291    -0.000001    -0.002519   111.346771
	   27 B(6,9,10)       =    109.315571    -0.000000     0.005853   109.321424
	   28 B(7,6,8)        =    108.890952    -0.000000     0.000156   108.891108
	   29 B(7,6,9)        =    111.238915     0.000001     0.005265   111.244180
	   30 B(8,6,9)        =    106.775011     0.000001     0.002645   106.777655
	   31 B(9,1,11)       =     84.820202     0.000003     0.013634    84.833836
	   32 B(9,1,13)       =     85.368570    -0.000001    -0.015810    85.352759
	   33 B(11,1,13)      =    114.327187     0.000001     0.002539   114.329726
	   34 D(1,9,6,5)      =    -58.410834     0.000000    -0.053208   -58.464042
	   35 D(1,9,6,7)      =    178.824780    -0.000000    -0.053798   178.770982
	   36 D(1,9,6,8)      =     60.142152    -0.000000    -0.058524    60.083627
	   37 D(2,1,9,6)      =    135.640266     0.000000     0.079168   135.719434
	   38 D(2,1,9,10)     =      9.158438     0.000000     0.024476     9.182913
	   39 D(2,1,11,3)     =   -159.499178     0.000000    -0.001727  -159.500906
	   40 D(2,1,11,4)     =    -37.290078    -0.000000    -0.008634   -37.298712
	   41 D(2,1,11,12)    =     82.363839     0.000000     0.003454    82.367293
	   42 D(3,11,1,9)     =    -58.354473    -0.000000    -0.004495   -58.358968
	   43 D(3,11,1,13)    =     24.178255     0.000000    -0.016012    24.162243
	   44 D(4,11,1,9)     =     63.854627    -0.000000    -0.011401    63.843226
	   45 D(4,11,1,13)    =    146.387355    -0.000000    -0.022918   146.364436
	   46 D(5,6,9,10)     =     63.821275     0.000000     0.012969    63.834244
	   47 D(6,9,1,11)     =     15.221741     0.000000     0.077765    15.299506
	   48 D(6,9,1,13)     =    -99.760335    -0.000000     0.074813   -99.685522
	   49 D(7,6,9,10)     =    -58.943110     0.000000     0.012378   -58.930732
	   50 D(8,6,9,10)     =   -177.625739    -0.000000     0.007652  -177.618087
	   51 D(9,1,11,12)    =   -176.491456     0.000000     0.000687  -176.490769
	   52 D(10,9,1,11)    =   -111.260088     0.000000     0.023073  -111.237015
	   53 D(10,9,1,13)    =    133.757837    -0.000000     0.020120   133.777957
	   54 D(12,11,1,13)   =    -93.958728     0.000000    -0.010830   -93.969559
	 ---------------------------------------------------------------------------
	Successfully symmetrized geometry.

  ==> Convergence Check <==

  Measures of convergence in internal coordinates in au.
  Criteria marked as inactive (o), active & met (*), and active & unmet ( ).
  ---------------------------------------------------------------------------------------------
   Step     Total Energy     Delta E     MAX Force     RMS Force      MAX Disp      RMS Disp   
  ---------------------------------------------------------------------------------------------
    Convergence Criteria    1.00e-06 *    3.00e-04 *             o    1.20e-03 *             o
  ---------------------------------------------------------------------------------------------
     35    -567.25184438    4.72e-07 *    9.71e-05 *    2.03e-05 o    1.38e-03      4.31e-04 o  ~
  ---------------------------------------------------------------------------------------------


  **** Optimization is complete! (in 35 steps) ****

  ==> Optimization Summary <==

  Measures of convergence in internal coordinates in au.
  --------------------------------------------------------------------------------------------------------------- ~
   Step         Total Energy             Delta E       MAX Force       RMS Force        MAX Disp        RMS Disp  ~
  --------------------------------------------------------------------------------------------------------------- ~
      1    -567.245132409602   -567.245132409602      0.01114110      0.00277101      0.19390668      0.03091707  ~
      2    -567.247416991770     -0.002284582168      0.00515520      0.00125143      0.21087552      0.04379472  ~
      3    -567.248705765865     -0.001288774095      0.00229827      0.00075358      0.09510061      0.02211109  ~
      4    -567.248967123858     -0.000261357993      0.00127044      0.00039437      0.06705540      0.02338190  ~
      5    -567.249114338874     -0.000147215016      0.00117546      0.00034114      0.10030639      0.03338065  ~
      6    -567.249212659339     -0.000098320465      0.00180868      0.00058991      0.10916851      0.03583644  ~
      7    -567.249296962750     -0.000084303411      0.00392309      0.00097737      0.10336814      0.03218863  ~
      8    -567.249401463557     -0.000104500808      0.00344707      0.00093222      0.05618637      0.02069628  ~
      9    -567.249545565416     -0.000144101858      0.00181332      0.00050586      0.06557677      0.01984690  ~
     10    -567.249607520413     -0.000061954997      0.00219301      0.00054541      0.07443844      0.02354211  ~
     11    -567.249707547202     -0.000100026789      0.00097292      0.00032781      0.02487157      0.00849448  ~
     12    -567.249758246020     -0.000050698818      0.00093285      0.00019168      0.02727510      0.00857594  ~
     13    -567.249795965418     -0.000037719399      0.00078603      0.00017664      0.02663989      0.00859982  ~
     14    -567.249834960323     -0.000038994905      0.00067350      0.00015899      0.02797936      0.00850327  ~
     15    -567.249878149733     -0.000043189410      0.00057331      0.00012481      0.07677915      0.02671023  ~
     16    -567.249989305582     -0.000111155849      0.00214028      0.00043784      0.07635179      0.02683478  ~
     17    -567.250088254904     -0.000098949322      0.00295275      0.00061424      0.07131174      0.02548163  ~
     18    -567.250184904467     -0.000096649563      0.00208547      0.00047171      0.17721231      0.05891732  ~
     19    -567.250359906662     -0.000175002195      0.00108723      0.00033142      0.26407906      0.08480332  ~
     20    -567.250469720809     -0.000109814147      0.00409157      0.00102472      0.04832199      0.01863655  ~
     21    -567.250628835779     -0.000159114970      0.00138631      0.00037517      0.20774332      0.06864269  ~
     22    -567.250843188673     -0.000214352894      0.00096226      0.00030457      0.24602664      0.07658230  ~
     23    -567.251009320198     -0.000166131525      0.00209540      0.00058643      0.22726321      0.06721979  ~
     24    -567.251132809274     -0.000123489076      0.00439985      0.00108477      0.06689042      0.01898671  ~
     25    -567.251273397618     -0.000140588344      0.00326211      0.00082180      0.06216485      0.01918140  ~
     26    -567.251415847393     -0.000142449775      0.00151860      0.00045693      0.06359385      0.01891651  ~
     27    -567.251512261120     -0.000096413726      0.00102272      0.00034979      0.20445203      0.05756794  ~
     28    -567.251653949664     -0.000141688544      0.00175356      0.00058365      0.13977211      0.04523538  ~
     29    -567.251639375783      0.000014573881      0.00528397      0.00131812      0.10919215      0.03111347  ~
     30    -567.251811127126     -0.000171751343      0.00175064      0.00050308      0.11822925      0.03419519  ~
     31    -567.251680783322      0.000130343803      0.00373934      0.00104546      0.12361030      0.03982836  ~
     32    -567.251731900876     -0.000051117554      0.00379737      0.00113668      0.02251289      0.00726254  ~
     33    -567.251838299484     -0.000106398608      0.00078003      0.00017306      0.01280356      0.00482645  ~
     34    -567.251844851172     -0.000006551687      0.00028353      0.00007603      0.00346431      0.00116077  ~
     35    -567.251844379473      0.000000471698      0.00009707      0.00002025      0.00138174      0.00043103  ~
  --------------------------------------------------------------------------------------------------------------- ~

	Writing optimization data to binary file.
	Final energy is   -567.2518443794733
	Final (previous) structure:
	Cartesian Geometry (in Angstrom)
	    C    -0.6101067389  -1.0420929117  -0.5574034208
	    O    -1.7819647030  -0.9615987922  -0.7542289137
	    F     1.3341825623  -0.2209294838   0.5363095501
	    F    -0.5431620537   0.7377519586   1.0301125198
	    H     0.9469697331   2.5548098402  -0.5158060824
	    C     1.2187418322   2.0232298573  -1.4319944369
	    H     1.3194997978   2.7345314049  -2.2556407993
	    H     2.1740998164   1.5258800345  -1.2771491042
	    O     0.2727897148   1.0077174474  -1.7412262973
	    H    -0.5803015889   1.4122644777  -1.9222323547
	    C     0.0230537792  -0.4171594251   0.7001078690
	    F    -0.1292876837  -1.2633457816   1.7287523978
	    H     0.0957677128  -1.6019739962  -1.1901173596
	Saving final (previous) structure.
	Removing binary optimization data file.
			--------------------------
			 OPTKING Finished Execution 
			--------------------------

    Final optimized geometry and variables:
    Molecular point group: c1
    Full point group: C1

    Geometry (in Angstrom), charge = 0, multiplicity = 1:

    C           -0.610106738862    -1.042092911717    -0.557403420838
    O           -1.781964702963    -0.961598792239    -0.754228913697
    F            1.334182562316    -0.220929483840     0.536309550085
    F           -0.543162053692     0.737751958640     1.030112519816
    H            0.946969733127     2.554809840237    -0.515806082350
    C            1.218741832197     2.023229857251    -1.431994436919
    H            1.319499797758     2.734531404921    -2.255640799283
    H            2.174099816406     1.525880034451    -1.277149104162
    O            0.272789714836     1.007717447377    -1.741226297305
    H           -0.580301588947     1.412264477749    -1.922232354730
    C            0.023053779194    -0.417159425120     0.700107869040
    F           -0.129287683665    -1.263345781640     1.728752397827
    H            0.095767712818    -1.601973996190    -1.190117359554

	Removing binary optimization data file.
	Cleaning optimization helper files.

    Psi4 stopped on: Monday, 13 May 2019 11:06AM
    Psi4 wall time for execution: 0:09:06.20

*** Psi4 exiting successfully. Buy a developer a beer!
