[Molden Format]

[FREQ]
       -2214.5805315823
         584.7104281021
         739.8419233737
         881.9818589585
        1076.6719026353
        1363.5601870802
        1744.0981234246
        2071.3931785646
        2174.2552895146

[FR-COORD]
C          0.2146635777       -0.2907918277        0.0710461866
O         -2.1466559326       -0.4221269238       -0.0653620957
O          2.0111261976        0.9913616409       -0.0537423974
H          0.7647605534       -2.9416134446        0.6189807310
H         -1.1697677520       -2.6301461246        0.4253592343

[FR-NORM-COORD]
vibration 1
          -0.0778250793        0.0708232672       -0.0189777251
           0.0165373965        0.0294009358       -0.0044978906
           0.0031541866       -0.0269233598        0.0054048548
          -0.1248102739       -0.3724628523        0.0628697871
           0.7389404471       -0.5101385867        0.1487005537
vibration 2
          -0.0228753318        0.0644371956        0.3351507165
           0.0043479733       -0.0120606980       -0.0630232997
           0.0083920345       -0.0240450218       -0.1245769251
           0.0077094614       -0.0207738060       -0.1098157411
           0.0624700268       -0.1734448674       -0.9034147181
vibration 3
          -0.1370020124        0.5725524270       -0.1193614369
          -0.2747253739       -0.3488469790        0.0484058348
           0.3965735161       -0.1190743691        0.0499429037
          -0.0452149282        0.2734262793       -0.0567716932
          -0.2573440200        0.3355414168       -0.0828779754
vibration 4
          -0.0230546459       -0.0471401915        0.0072648356
          -0.0600155157        0.0333557338       -0.0104296694
           0.0121723326       -0.0437546407        0.0093208569
           0.5588803738        0.6633860666       -0.0887431297
           0.4749333796        0.0629423162        0.0198396351
vibration 5
           0.0072047462       -0.0201863600       -0.1049441136
          -0.0035746344        0.0099901154        0.0522534723
          -0.0015054569        0.0044968175        0.0228730355
          -0.0500335698        0.1370372101        0.7157066126
           0.0448726257       -0.1265998181       -0.6584672273
vibration 6
          -0.2072905552        0.2829644987       -0.0688974804
           0.4113281769       -0.0299276841        0.0339578383
          -0.2522188717       -0.2407538125        0.0292284097
           0.2031998319        0.5716834084       -0.0957154850
          -0.2602068390        0.3550185622       -0.0867456281
vibration 7
           0.0420878124        0.0277317250       -0.0025096641
          -0.0297252617        0.0064365492       -0.0032737167
          -0.0416882756       -0.0324125481        0.0034058416
           0.3837771908       -0.5717141414        0.1364233494
           0.2484750982        0.6537751961       -0.1086381276
vibration 8
          -0.0174844142        0.0297182466       -0.0069147428
          -0.0090624440        0.0291465499       -0.0062166533
           0.0055032566       -0.0052642350        0.0013928002
           0.7036927149       -0.2479688015        0.0961655778
          -0.4390219038       -0.4849109379        0.0627251298
vibration 9
           0.5432030724        0.2366624327       -0.0085303498
          -0.1500699934        0.0087994759       -0.0119599663
          -0.2450316584       -0.1682569232        0.0157447655
          -0.2539461969        0.3084418931       -0.0767908243
           0.0566702049       -0.5956355308        0.1182927282
