
    -----------------------------------------------------------------------
          Psi4: An Open-Source Ab Initio Electronic Structure Package
                               Psi4 1.2.1 release

                         Git: Rev {HEAD} 406f4de 


    R. M. Parrish, L. A. Burns, D. G. A. Smith, A. C. Simmonett,
    A. E. DePrince III, E. G. Hohenstein, U. Bozkaya, A. Yu. Sokolov,
    R. Di Remigio, R. M. Richard, J. F. Gonthier, A. M. James,
    H. R. McAlexander, A. Kumar, M. Saitow, X. Wang, B. P. Pritchard,
    P. Verma, H. F. Schaefer III, K. Patkowski, R. A. King, E. F. Valeev,
    F. A. Evangelista, J. M. Turney, T. D. Crawford, and C. D. Sherrill,
    J. Chem. Theory Comput. 13(7) pp 3185--3197 (2017).
    (doi: 10.1021/acs.jctc.7b00174)


                         Additional Contributions by
    P. Kraus, H. Kruse, M. H. Lechner, M. C. Schieber, and R. A. Shaw

    -----------------------------------------------------------------------


    Psi4 started on: Friday, 29 March 2019 12:27PM

    Process ID: 6619
    Host:       localhost.localdomain
    PSIDATADIR: /root/psi4conda/share/psi4
    Memory:     500.0 MiB
    Threads:    1
    
  ==> Input File <==

--------------------------------------------------------------------------
molecule{
0 1
    C            0.113595072843    -0.153880407652     0.037596022684
    O           -1.135961394234    -0.223379947195    -0.034588131338
    O            1.064242147389     0.524605985828    -0.028439251841
    H            0.404693854873    -1.556634791353     0.327550495378
    H           -0.619014433727    -1.391813384411     0.225090412236 
}

set{
   basis def2-svp
   freeze_core True
   reference uhf
   full_hess_every 0
   normal_modes_write True
}


set_num_threads(32)
frequencies('b3lyp')
--------------------------------------------------------------------------
  Threads set to 32 by Python driver.
gradient() will perform analytic gradient computation.

*** tstart() called on localhost.localdomain
*** at Fri Mar 29 12:27:44 2019

   => Loading Basis Set <=

    Name: DEF2-SVP
    Role: ORBITAL
    Keyword: BASIS
    atoms 1   entry C          line    90 file /root/psi4conda/share/psi4/basis/def2-svp.gbs 
    atoms 2-3 entry O          line   130 file /root/psi4conda/share/psi4/basis/def2-svp.gbs 
    atoms 4-5 entry H          line    15 file /root/psi4conda/share/psi4/basis/def2-svp.gbs 


         ---------------------------------------------------------
                                   SCF
            by Justin Turney, Rob Parrish, Andy Simmonett
                             and Daniel Smith
                              UKS Reference
                       32 Threads,    500 MiB Core
         ---------------------------------------------------------

  ==> Geometry <==

    Molecular point group: c1
    Full point group: C1

    Geometry (in Angstrom), charge = 0, multiplicity = 1:

       Center              X                  Y                   Z               Mass       
    ------------   -----------------  -----------------  -----------------  -----------------
         C            0.113595072843    -0.153880407652     0.037596022684    12.000000000000
         O           -1.135961394234    -0.223379947195    -0.034588131338    15.994914619560
         O            1.064242147389     0.524605985828    -0.028439251841    15.994914619560
         H            0.404693854873    -1.556634791353     0.327550495378     1.007825032070
         H           -0.619014433727    -1.391813384411     0.225090412236     1.007825032070

  Running in c1 symmetry.

  Rotational constants: A =      3.25619  B =      0.37992  C =      0.34022 [cm^-1]
  Rotational constants: A =  97618.20852  B =  11389.63499  C =  10199.59459 [MHz]
  Nuclear repulsion =   70.276589719690364

  Charge       = 0
  Multiplicity = 1
  Electrons    = 24
  Nalpha       = 12
  Nbeta        = 12

  ==> Algorithm <==

  SCF Algorithm Type is DF.
  DIIS enabled.
  MOM disabled.
  Fractional occupation disabled.
  Guess Type is GWH.
  Energy threshold   = 1.00e-08
  Density threshold  = 1.00e-08
  Integral threshold = 0.00e+00

  ==> Primary Basis <==

  Basis Set: DEF2-SVP
    Blend: DEF2-SVP
    Number of shells: 24
    Number of basis function: 52
    Number of Cartesian functions: 55
    Spherical Harmonics?: true
    Max angular momentum: 2

  ==> DFT Potential <==

   => Composite Functional: B3LYP <= 

    B3LYP Hyb-GGA Exchange-Correlation Functional

    P. J. Stephens, F. J. Devlin, C. F. Chabalowski, and M. J. Frisch, J. Phys. Chem. 98, 11623 (1994)

    Deriv               =              1
    GGA                 =           TRUE
    Meta                =          FALSE

    Exchange Hybrid     =           TRUE
    MP2 Hybrid          =          FALSE

   => Exchange Functionals <=

    0.0800   Slater exchange
    0.7200         Becke 88

   => Exact (HF) Exchange <=

    0.2000               HF 

   => Correlation Functionals <=

    0.1900   Vosko, Wilk & Nusair (VWN5_RPA)
    0.8100   Lee, Yang & Parr

   => Molecular Quadrature <=

    Radial Scheme       =       TREUTLER
    Pruning Scheme      =           FLAT
    Nuclear Scheme      =       TREUTLER

    BS radius alpha     =              1
    Pruning alpha       =              1
    Radial Points       =             75
    Spherical Points    =            302
    Total Points        =         109988
    Total Blocks        =            892
    Max Points          =            256
    Max Functions       =             51

   => Loading Basis Set <=

    Name: (DEF2-SVP AUX)
    Role: JKFIT
    Keyword: DF_BASIS_SCF
    atoms 1   entry C          line   203 file /root/psi4conda/share/psi4/basis/def2-svp-jkfit.gbs 
    atoms 2-3 entry O          line   323 file /root/psi4conda/share/psi4/basis/def2-svp-jkfit.gbs 
    atoms 4-5 entry H          line    23 file /root/psi4conda/share/psi4/basis/def2-svp-jkfit.gbs 

  ==> Pre-Iterations <==

   -------------------------------------------------------
    Irrep   Nso     Nmo     Nalpha   Nbeta   Ndocc  Nsocc
   -------------------------------------------------------
     A         52      52       0       0       0       0
   -------------------------------------------------------
    Total      52      52      12      12      12       0
   -------------------------------------------------------

  ==> Integral Setup <==

  DFHelper Memory: AOs need 0.008 [GiB]; user supplied 0.366 [GiB]. Using in-core AOs.

  ==> MemDFJK: Density-Fitted J/K Matrices <==

    J tasked:                   Yes
    K tasked:                   Yes
    wK tasked:                   No
    OpenMP threads:              32
    Memory (MB):                375
    Algorithm:                 Core
    Schwarz Cutoff:           1E-12
    Mask sparsity (%):       0.0740
    Fitting Condition:        1E-12

   => Auxiliary Basis Set <=

  Basis Set: (DEF2-SVP AUX)
    Blend: DEF2-SVP-JKFIT
    Number of shells: 87
    Number of basis function: 265
    Number of Cartesian functions: 315
    Spherical Harmonics?: true
    Max angular momentum: 4

  Minimum eigenvalue in the overlap matrix is 9.0423877464E-03.
  Using Symmetric Orthogonalization.

  SCF Guess: Generalized Wolfsberg-Helmholtz.

  ==> Iterations <==

                           Total Energy        Delta E     RMS |[F,P]|

   @DF-UKS iter   1:  -187.44092239107169   -1.87441e+02   2.02594e-01 
   @DF-UKS iter   2:  -188.70974501497335   -1.26882e+00   7.91528e-02 DIIS
   @DF-UKS iter   3:  -188.82305119450388   -1.13306e-01   7.26561e-02 DIIS
   @DF-UKS iter   4:  -189.44932162189815   -6.26270e-01   2.43820e-02 DIIS
   @DF-UKS iter   5:  -189.47643816448539   -2.71165e-02   2.01480e-02 DIIS
   @DF-UKS iter   6:  -189.50304755360662   -2.66094e-02   8.27797e-03 DIIS
   @DF-UKS iter   7:  -189.50577352710138   -2.72597e-03   1.10039e-03 DIIS
   @DF-UKS iter   8:  -189.50583536140385   -6.18343e-05   1.41727e-04 DIIS
   @DF-UKS iter   9:  -189.50583674146714   -1.38006e-06   1.19759e-05 DIIS
   @DF-UKS iter  10:  -189.50583676559995   -2.41328e-08   2.10739e-06 DIIS
   @DF-UKS iter  11:  -189.50583676667020   -1.07025e-09   3.74404e-07 DIIS
   @DF-UKS iter  12:  -189.50583676669578   -2.55795e-11   6.14687e-08 DIIS
   @DF-UKS iter  13:  -189.50583676669612   -3.41061e-13   1.73361e-08 DIIS
   @DF-UKS iter  14:  -189.50583676669635   -2.27374e-13   5.05503e-09 DIIS

  ==> Post-Iterations <==

   @Spin Contamination Metric:   2.842170943E-14
   @S^2 Expected:                0.000000000E+00
   @S^2 Observed:                2.842170943E-14
   @S   Expected:                0.000000000E+00
   @S   Observed:                0.000000000E+00

    Orbital Energies [Eh]
    ---------------------

    Alpha Occupied:                                                       

       1A    -19.199175     2A    -19.192634     3A    -10.394277  
       4A     -1.139834     5A     -1.082443     6A     -0.627374  
       7A     -0.551889     8A     -0.506026     9A     -0.500974  
      10A     -0.393852    11A     -0.358908    12A     -0.314859  

    Alpha Virtual:                                                        

      13A     -0.046808    14A     -0.004863    15A      0.073734  
      16A      0.158859    17A      0.301035    18A      0.405698  
      19A      0.407958    20A      0.450136    21A      0.514440  
      22A      0.559242    23A      0.672166    24A      0.841197  
      25A      0.898316    26A      0.920159    27A      1.016548  
      28A      1.016805    29A      1.133820    30A      1.134229  
      31A      1.276830    32A      1.340872    33A      1.453177  
      34A      1.505127    35A      1.583784    36A      1.654697  
      37A      1.692012    38A      1.705145    39A      1.988261  
      40A      2.192225    41A      2.266555    42A      2.584635  
      43A      2.639171    44A      2.672963    45A      2.692036  
      46A      2.831387    47A      3.016757    48A      3.232525  
      49A      3.331500    50A      3.341193    51A      3.561291  
      52A      3.744888  

    Beta Occupied:                                                        

       1A    -19.199175     2A    -19.192634     3A    -10.394277  
       4A     -1.139834     5A     -1.082443     6A     -0.627374  
       7A     -0.551889     8A     -0.506026     9A     -0.500974  
      10A     -0.393852    11A     -0.358908    12A     -0.314859  

    Beta Virtual:                                                         

      13A     -0.046808    14A     -0.004863    15A      0.073734  
      16A      0.158859    17A      0.301035    18A      0.405698  
      19A      0.407958    20A      0.450136    21A      0.514440  
      22A      0.559242    23A      0.672166    24A      0.841197  
      25A      0.898316    26A      0.920159    27A      1.016548  
      28A      1.016805    29A      1.133820    30A      1.134229  
      31A      1.276830    32A      1.340872    33A      1.453177  
      34A      1.505127    35A      1.583784    36A      1.654697  
      37A      1.692012    38A      1.705145    39A      1.988261  
      40A      2.192225    41A      2.266555    42A      2.584635  
      43A      2.639171    44A      2.672963    45A      2.692036  
      46A      2.831387    47A      3.016757    48A      3.232525  
      49A      3.331500    50A      3.341193    51A      3.561291  
      52A      3.744888  

    Final Occupation by Irrep:
              A 
    DOCC [    12 ]
    SOCC [     0 ]

  Energy converged.

  @DF-UKS Final Energy:  -189.50583676669635

   => Energetics <=

    Nuclear Repulsion Energy =             70.2765897196903637
    One-Electron Energy =                -397.5443949510804487
    Two-Electron Energy =                 156.5542717339058640
    DFT Exchange-Correlation Energy =     -18.7923032692121552
    Empirical Dispersion Energy =           0.0000000000000000
    VV10 Nonlocal Energy =                  0.0000000000000000
    Total Energy =                       -189.5058367666963477


  UHF NO Occupations:
  HONO-2 :   10  A 2.0000000
  HONO-1 :   11  A 2.0000000
  HONO-0 :   12  A 2.0000000
  LUNO+0 :   13  A 0.0000000
  LUNO+1 :   14  A 0.0000000
  LUNO+2 :   15  A 0.0000000
  LUNO+3 :   16  A 0.0000000



Properties will be evaluated at   0.000000,   0.000000,   0.000000 [a0]

Properties computed using the SCF density matrix

  Nuclear Dipole Moment: [e a0]
     X:    -0.2013      Y:    -2.7626      Z:     0.5178

  Electronic Dipole Moment: [e a0]
     X:     0.1074      Y:     2.1337      Z:    -0.4032

  Dipole Moment: [e a0]
     X:    -0.0939      Y:    -0.6289      Z:     0.1146     Total:     0.6462

  Dipole Moment: [D]
     X:    -0.2387      Y:    -1.5986      Z:     0.2913     Total:     1.6424


*** tstop() called on localhost.localdomain at Fri Mar 29 12:27:53 2019
Module time:
	user time   =     225.55 seconds =       3.76 minutes
	system time =      17.84 seconds =       0.30 minutes
	total time  =          9 seconds =       0.15 minutes
Total time:
	user time   =     225.55 seconds =       3.76 minutes
	system time =      17.84 seconds =       0.30 minutes
	total time  =          9 seconds =       0.15 minutes

*** tstart() called on localhost.localdomain
*** at Fri Mar 29 12:27:53 2019


         ------------------------------------------------------------
                                   SCF GRAD                          
                          Rob Parrish, Justin Turney,                
                       Andy Simmonett, and Alex Sokolov              
         ------------------------------------------------------------

  ==> Geometry <==

    Molecular point group: c1
    Full point group: C1

    Geometry (in Angstrom), charge = 0, multiplicity = 1:

       Center              X                  Y                   Z               Mass       
    ------------   -----------------  -----------------  -----------------  -----------------
         C            0.113595072843    -0.153880407652     0.037596022684    12.000000000000
         O           -1.135961394234    -0.223379947195    -0.034588131338    15.994914619560
         O            1.064242147389     0.524605985828    -0.028439251841    15.994914619560
         H            0.404693854873    -1.556634791353     0.327550495378     1.007825032070
         H           -0.619014433727    -1.391813384411     0.225090412236     1.007825032070

  Nuclear repulsion =   70.276589719690364

  ==> Basis Set <==

  Basis Set: DEF2-SVP
    Blend: DEF2-SVP
    Number of shells: 24
    Number of basis function: 52
    Number of Cartesian functions: 55
    Spherical Harmonics?: true
    Max angular momentum: 2

  ==> DFJKGrad: Density-Fitted SCF Gradients <==

    Gradient:                    1
    J tasked:                  Yes
    K tasked:                  Yes
    wK tasked:                  No
    OpenMP threads:             32
    Integrals threads:          32
    Memory (MB):               375
    Schwarz Cutoff:          0E+00
    Fitting Condition:       1E-12

   => Auxiliary Basis Set <=

  Basis Set: (DEF2-SVP AUX)
    Blend: DEF2-SVP-JKFIT
    Number of shells: 87
    Number of basis function: 265
    Number of Cartesian functions: 315
    Spherical Harmonics?: true
    Max angular momentum: 4

  ==> DFT Potential <==

   => Composite Functional: B3LYP <= 

    B3LYP Hyb-GGA Exchange-Correlation Functional

    P. J. Stephens, F. J. Devlin, C. F. Chabalowski, and M. J. Frisch, J. Phys. Chem. 98, 11623 (1994)

    Deriv               =              1
    GGA                 =           TRUE
    Meta                =          FALSE

    Exchange Hybrid     =           TRUE
    MP2 Hybrid          =          FALSE

   => Exchange Functionals <=

    0.0800   Slater exchange
    0.7200         Becke 88

   => Exact (HF) Exchange <=

    0.2000               HF 

   => Correlation Functionals <=

    0.1900   Vosko, Wilk & Nusair (VWN5_RPA)
    0.8100   Lee, Yang & Parr

   => Molecular Quadrature <=

    Radial Scheme       =       TREUTLER
    Pruning Scheme      =           FLAT
    Nuclear Scheme      =       TREUTLER

    BS radius alpha     =              1
    Pruning alpha       =              1
    Radial Points       =             75
    Spherical Points    =            302
    Total Points        =         109988
    Total Blocks        =            892
    Max Points          =            256
    Max Functions       =             51


  -Total Gradient:
     Atom            X                  Y                   Z
    ------   -----------------  -----------------  -----------------
       1        0.000180171779    -0.000043496943     0.000063677664
       2       -0.000032713951     0.000058076026    -0.000015472176
       3       -0.000042312767     0.000077437748    -0.000043649407
       4       -0.000176183520    -0.000039438898     0.000005848543
       5        0.000117844384    -0.000047606695    -0.000008374036


*** tstop() called on localhost.localdomain at Fri Mar 29 12:27:56 2019
Module time:
	user time   =      67.88 seconds =       1.13 minutes
	system time =       5.05 seconds =       0.08 minutes
	total time  =          3 seconds =       0.05 minutes
Total time:
	user time   =     293.49 seconds =       4.89 minutes
	system time =      22.90 seconds =       0.38 minutes
	total time  =         12 seconds =       0.20 minutes

  Based on options and gradient (rms=1.30E-04), recommend projecting translations and projecting rotations.
hessian() will perform frequency computation by finite difference of analytic gradients.

-------------------------------------------------------------

  Using finite-differences of gradients to determine vibrational frequencies and 
  normal modes.  Resulting frequencies are only valid at stationary points.
	Generating geometries for use with 3-point formula.
	Displacement size will be 5.00e-03.
	Number of atoms is 5.
	Number of irreps is 1.
	Number of SALCS is 9.
	Translations projected? 1. Rotations projected? 1.
	Index of salcs per irrep:
	 1 :  0  1  2  3  4  5  6  7  8 
	Number of SALC's per irrep:
		 Irrep 1: 9
	Number of geometries (including reference) is 19.
	Number of displacements per irrep:
	  Irrep 1: 18

  //>>>>>>>>>>>>>>>>>>>>>>>>>>>>>>>>>>>//
  //    Loading displacement 1 of 19   //
  //<<<<<<<<<<<<<<<<<<<<<<<<<<<<<<<<<<<//
gradient() will perform analytic gradient computation.

*** tstart() called on localhost.localdomain
*** at Fri Mar 29 12:27:56 2019

   => Loading Basis Set <=

    Name: DEF2-SVP
    Role: ORBITAL
    Keyword: BASIS
    atoms 1   entry C          line    90 file /root/psi4conda/share/psi4/basis/def2-svp.gbs 
    atoms 2-3 entry O          line   130 file /root/psi4conda/share/psi4/basis/def2-svp.gbs 
    atoms 4-5 entry H          line    15 file /root/psi4conda/share/psi4/basis/def2-svp.gbs 


         ---------------------------------------------------------
                                   SCF
            by Justin Turney, Rob Parrish, Andy Simmonett
                             and Daniel Smith
                              UKS Reference
                       32 Threads,    500 MiB Core
         ---------------------------------------------------------

  ==> Geometry <==

    Molecular point group: c1
    Full point group: C1

    Geometry (in Angstrom), charge = 0, multiplicity = 1:

       Center              X                  Y                   Z               Mass       
    ------------   -----------------  -----------------  -----------------  -----------------
         C            0.112941251461    -0.153877465662     0.037590785148    12.000000000000
         O           -1.135721820238    -0.223416834675    -0.034574302103    15.994914619560
         O            1.064457035552     0.524641875310    -0.028445310401    15.994914619560
         H            0.404983577346    -1.556628545296     0.327509777776     1.007825032070
         H           -0.618731861267    -1.391838821291     0.225070166028     1.007825032070

  Running in c1 symmetry.

  Rotational constants: A =      3.25707  B =      0.37993  C =      0.34024 [cm^-1]
  Rotational constants: A =  97644.50553  B =  11389.89965  C =  10200.09399 [MHz]
  Nuclear repulsion =   70.277938813127079

  Charge       = 0
  Multiplicity = 1
  Electrons    = 24
  Nalpha       = 12
  Nbeta        = 12

  ==> Algorithm <==

  SCF Algorithm Type is DF.
  DIIS enabled.
  MOM disabled.
  Fractional occupation disabled.
  Guess Type is GWH.
  Energy threshold   = 1.00e-08
  Density threshold  = 1.00e-08
  Integral threshold = 0.00e+00

  ==> Primary Basis <==

  Basis Set: DEF2-SVP
    Blend: DEF2-SVP
    Number of shells: 24
    Number of basis function: 52
    Number of Cartesian functions: 55
    Spherical Harmonics?: true
    Max angular momentum: 2

  ==> DFT Potential <==

   => Composite Functional: B3LYP <= 

    B3LYP Hyb-GGA Exchange-Correlation Functional

    P. J. Stephens, F. J. Devlin, C. F. Chabalowski, and M. J. Frisch, J. Phys. Chem. 98, 11623 (1994)

    Deriv               =              1
    GGA                 =           TRUE
    Meta                =          FALSE

    Exchange Hybrid     =           TRUE
    MP2 Hybrid          =          FALSE

   => Exchange Functionals <=

    0.0800   Slater exchange
    0.7200         Becke 88

   => Exact (HF) Exchange <=

    0.2000               HF 

   => Correlation Functionals <=

    0.1900   Vosko, Wilk & Nusair (VWN5_RPA)
    0.8100   Lee, Yang & Parr

   => Molecular Quadrature <=

    Radial Scheme       =       TREUTLER
    Pruning Scheme      =           FLAT
    Nuclear Scheme      =       TREUTLER

    BS radius alpha     =              1
    Pruning alpha       =              1
    Radial Points       =             75
    Spherical Points    =            302
    Total Points        =         109988
    Total Blocks        =            894
    Max Points          =            256
    Max Functions       =             51

   => Loading Basis Set <=

    Name: (DEF2-SVP AUX)
    Role: JKFIT
    Keyword: DF_BASIS_SCF
    atoms 1   entry C          line   203 file /root/psi4conda/share/psi4/basis/def2-svp-jkfit.gbs 
    atoms 2-3 entry O          line   323 file /root/psi4conda/share/psi4/basis/def2-svp-jkfit.gbs 
    atoms 4-5 entry H          line    23 file /root/psi4conda/share/psi4/basis/def2-svp-jkfit.gbs 

  ==> Pre-Iterations <==

   -------------------------------------------------------
    Irrep   Nso     Nmo     Nalpha   Nbeta   Ndocc  Nsocc
   -------------------------------------------------------
     A         52      52       0       0       0       0
   -------------------------------------------------------
    Total      52      52      12      12      12       0
   -------------------------------------------------------

  ==> Integral Setup <==

  DFHelper Memory: AOs need 0.008 [GiB]; user supplied 0.366 [GiB]. Using in-core AOs.

  ==> MemDFJK: Density-Fitted J/K Matrices <==

    J tasked:                   Yes
    K tasked:                   Yes
    wK tasked:                   No
    OpenMP threads:              32
    Memory (MB):                375
    Algorithm:                 Core
    Schwarz Cutoff:           1E-12
    Mask sparsity (%):       0.0740
    Fitting Condition:        1E-12

   => Auxiliary Basis Set <=

  Basis Set: (DEF2-SVP AUX)
    Blend: DEF2-SVP-JKFIT
    Number of shells: 87
    Number of basis function: 265
    Number of Cartesian functions: 315
    Spherical Harmonics?: true
    Max angular momentum: 4

  Minimum eigenvalue in the overlap matrix is 9.0333931183E-03.
  Using Symmetric Orthogonalization.

  SCF Guess: Generalized Wolfsberg-Helmholtz.

  ==> Iterations <==

                           Total Energy        Delta E     RMS |[F,P]|

   @DF-UKS iter   1:  -187.44013200490303   -1.87440e+02   2.90725e-01 
   @DF-UKS iter   2:  -188.70990643242004   -1.26977e+00   1.17658e-01 DIIS
   @DF-UKS iter   3:  -188.82324650688628   -1.13340e-01   8.48221e-02 DIIS
   @DF-UKS iter   4:  -189.44899614981705   -6.25750e-01   2.05081e-02 DIIS
   @DF-UKS iter   5:  -189.47640580359149   -2.74097e-02   2.25832e-02 DIIS
   @DF-UKS iter   6:  -189.50305226744541   -2.66465e-02   7.05932e-03 DIIS
   @DF-UKS iter   7:  -189.50577199119874   -2.71972e-03   1.60012e-03 DIIS
   @DF-UKS iter   8:  -189.50583402976810   -6.20386e-05   8.31695e-05 DIIS
   @DF-UKS iter   9:  -189.50583541462163   -1.38485e-06   1.19977e-05 DIIS
   @DF-UKS iter  10:  -189.50583543883141   -2.42098e-08   3.25905e-06 DIIS
   @DF-UKS iter  11:  -189.50583543990217   -1.07076e-09   6.91734e-07 DIIS
   @DF-UKS iter  12:  -189.50583543992803   -2.58638e-11   5.76983e-08 DIIS
   @DF-UKS iter  13:  -189.50583543992826   -2.27374e-13   1.38997e-08 DIIS
   @DF-UKS iter  14:  -189.50583543992826    0.00000e+00   3.31971e-09 DIIS

  ==> Post-Iterations <==

   @Spin Contamination Metric:  -1.065814104E-14
   @S^2 Expected:                0.000000000E+00
   @S^2 Observed:               -1.065814104E-14
   @S   Expected:                0.000000000E+00
   @S   Observed:                0.000000000E+00

    Orbital Energies [Eh]
    ---------------------

    Alpha Occupied:                                                       

       1A    -19.199043     2A    -19.192780     3A    -10.394347  
       4A     -1.139829     5A     -1.082515     6A     -0.627498  
       7A     -0.551961     8A     -0.505997     9A     -0.500970  
      10A     -0.393662    11A     -0.358939    12A     -0.314923  

    Alpha Virtual:                                                        

      13A     -0.046810    14A     -0.004877    15A      0.073653  
      16A      0.158863    17A      0.301045    18A      0.405673  
      19A      0.408348    20A      0.450017    21A      0.514466  
      22A      0.559234    23A      0.671671    24A      0.841266  
      25A      0.898307    26A      0.920169    27A      1.016535  
      28A      1.016777    29A      1.133740    30A      1.134106  
      31A      1.276746    32A      1.340857    33A      1.453201  
      34A      1.505088    35A      1.583655    36A      1.654799  
      37A      1.692165    38A      1.704964    39A      1.988750  
      40A      2.192242    41A      2.266475    42A      2.584724  
      43A      2.639064    44A      2.672793    45A      2.691746  
      46A      2.831343    47A      3.016825    48A      3.232608  
      49A      3.331441    50A      3.341323    51A      3.561311  
      52A      3.744808  

    Beta Occupied:                                                        

       1A    -19.199043     2A    -19.192780     3A    -10.394347  
       4A     -1.139829     5A     -1.082515     6A     -0.627498  
       7A     -0.551961     8A     -0.505997     9A     -0.500970  
      10A     -0.393662    11A     -0.358939    12A     -0.314923  

    Beta Virtual:                                                         

      13A     -0.046810    14A     -0.004877    15A      0.073653  
      16A      0.158863    17A      0.301045    18A      0.405673  
      19A      0.408348    20A      0.450017    21A      0.514466  
      22A      0.559234    23A      0.671671    24A      0.841266  
      25A      0.898307    26A      0.920169    27A      1.016535  
      28A      1.016777    29A      1.133740    30A      1.134106  
      31A      1.276746    32A      1.340857    33A      1.453201  
      34A      1.505088    35A      1.583655    36A      1.654799  
      37A      1.692165    38A      1.704964    39A      1.988750  
      40A      2.192242    41A      2.266475    42A      2.584724  
      43A      2.639064    44A      2.672793    45A      2.691746  
      46A      2.831343    47A      3.016825    48A      3.232608  
      49A      3.331441    50A      3.341323    51A      3.561311  
      52A      3.744808  

    Final Occupation by Irrep:
              A 
    DOCC [    12 ]
    SOCC [     0 ]

  Energy converged.

  @DF-UKS Final Energy:  -189.50583543992826

   => Energetics <=

    Nuclear Repulsion Energy =             70.2779388131270792
    One-Electron Energy =                -397.5466751901918769
    Two-Electron Energy =                 156.5551797627468318
    DFT Exchange-Correlation Energy =     -18.7922788256103281
    Empirical Dispersion Energy =           0.0000000000000000
    VV10 Nonlocal Energy =                  0.0000000000000000
    Total Energy =                       -189.5058354399282905


  UHF NO Occupations:
  HONO-2 :   10  A 2.0000000
  HONO-1 :   11  A 2.0000000
  HONO-0 :   12  A 2.0000000
  LUNO+0 :   13  A 0.0000000
  LUNO+1 :   14  A 0.0000000
  LUNO+2 :   15  A 0.0000000
  LUNO+3 :   16  A 0.0000000



Properties will be evaluated at   0.000000,   0.000000,   0.000000 [a0]

Properties computed using the SCF density matrix

  Nuclear Dipole Moment: [e a0]
     X:    -0.2007      Y:    -2.7627      Z:     0.5177

  Electronic Dipole Moment: [e a0]
     X:     0.1041      Y:     2.1332      Z:    -0.4032

  Dipole Moment: [e a0]
     X:    -0.0966      Y:    -0.6295      Z:     0.1145     Total:     0.6470

  Dipole Moment: [D]
     X:    -0.2455      Y:    -1.5999      Z:     0.2912     Total:     1.6446


*** tstop() called on localhost.localdomain at Fri Mar 29 12:28:05 2019
Module time:
	user time   =     237.56 seconds =       3.96 minutes
	system time =      18.64 seconds =       0.31 minutes
	total time  =          9 seconds =       0.15 minutes
Total time:
	user time   =     531.36 seconds =       8.86 minutes
	system time =      41.57 seconds =       0.69 minutes
	total time  =         21 seconds =       0.35 minutes

*** tstart() called on localhost.localdomain
*** at Fri Mar 29 12:28:05 2019


         ------------------------------------------------------------
                                   SCF GRAD                          
                          Rob Parrish, Justin Turney,                
                       Andy Simmonett, and Alex Sokolov              
         ------------------------------------------------------------

  ==> Geometry <==

    Molecular point group: c1
    Full point group: C1

    Geometry (in Angstrom), charge = 0, multiplicity = 1:

       Center              X                  Y                   Z               Mass       
    ------------   -----------------  -----------------  -----------------  -----------------
         C            0.112941251461    -0.153877465662     0.037590785148    12.000000000000
         O           -1.135721820238    -0.223416834675    -0.034574302103    15.994914619560
         O            1.064457035552     0.524641875310    -0.028445310401    15.994914619560
         H            0.404983577346    -1.556628545296     0.327509777776     1.007825032070
         H           -0.618731861267    -1.391838821291     0.225070166028     1.007825032070

  Nuclear repulsion =   70.277938813127079

  ==> Basis Set <==

  Basis Set: DEF2-SVP
    Blend: DEF2-SVP
    Number of shells: 24
    Number of basis function: 52
    Number of Cartesian functions: 55
    Spherical Harmonics?: true
    Max angular momentum: 2

  ==> DFJKGrad: Density-Fitted SCF Gradients <==

    Gradient:                    1
    J tasked:                  Yes
    K tasked:                  Yes
    wK tasked:                  No
    OpenMP threads:             32
    Integrals threads:          32
    Memory (MB):               375
    Schwarz Cutoff:          0E+00
    Fitting Condition:       1E-12

   => Auxiliary Basis Set <=

  Basis Set: (DEF2-SVP AUX)
    Blend: DEF2-SVP-JKFIT
    Number of shells: 87
    Number of basis function: 265
    Number of Cartesian functions: 315
    Spherical Harmonics?: true
    Max angular momentum: 4

  ==> DFT Potential <==

   => Composite Functional: B3LYP <= 

    B3LYP Hyb-GGA Exchange-Correlation Functional

    P. J. Stephens, F. J. Devlin, C. F. Chabalowski, and M. J. Frisch, J. Phys. Chem. 98, 11623 (1994)

    Deriv               =              1
    GGA                 =           TRUE
    Meta                =          FALSE

    Exchange Hybrid     =           TRUE
    MP2 Hybrid          =          FALSE

   => Exchange Functionals <=

    0.0800   Slater exchange
    0.7200         Becke 88

   => Exact (HF) Exchange <=

    0.2000               HF 

   => Correlation Functionals <=

    0.1900   Vosko, Wilk & Nusair (VWN5_RPA)
    0.8100   Lee, Yang & Parr

   => Molecular Quadrature <=

    Radial Scheme       =       TREUTLER
    Pruning Scheme      =           FLAT
    Nuclear Scheme      =       TREUTLER

    BS radius alpha     =              1
    Pruning alpha       =              1
    Radial Points       =             75
    Spherical Points    =            302
    Total Points        =         109988
    Total Blocks        =            894
    Max Points          =            256
    Max Functions       =             51


  -Total Gradient:
     Atom            X                  Y                   Z
    ------   -----------------  -----------------  -----------------
       1       -0.001724428505    -0.000938803436     0.000122963513
       2        0.000910546136    -0.000131898855     0.000078444594
       3        0.001048594856     0.000847608816    -0.000124724201
       4       -0.000047280388     0.000033055441    -0.000003484402
       5       -0.000140895133     0.000194728950    -0.000071169272


*** tstop() called on localhost.localdomain at Fri Mar 29 12:28:08 2019
Module time:
	user time   =      65.16 seconds =       1.09 minutes
	system time =       5.20 seconds =       0.09 minutes
	total time  =          3 seconds =       0.05 minutes
Total time:
	user time   =     596.60 seconds =       9.94 minutes
	system time =      46.78 seconds =       0.78 minutes
	total time  =         24 seconds =       0.40 minutes

  //>>>>>>>>>>>>>>>>>>>>>>>>>>>>>>>>>>>//
  //    Loading displacement 2 of 19   //
  //<<<<<<<<<<<<<<<<<<<<<<<<<<<<<<<<<<<//
gradient() will perform analytic gradient computation.

*** tstart() called on localhost.localdomain
*** at Fri Mar 29 12:28:08 2019

   => Loading Basis Set <=

    Name: DEF2-SVP
    Role: ORBITAL
    Keyword: BASIS
    atoms 1   entry C          line    90 file /root/psi4conda/share/psi4/basis/def2-svp.gbs 
    atoms 2-3 entry O          line   130 file /root/psi4conda/share/psi4/basis/def2-svp.gbs 
    atoms 4-5 entry H          line    15 file /root/psi4conda/share/psi4/basis/def2-svp.gbs 


         ---------------------------------------------------------
                                   SCF
            by Justin Turney, Rob Parrish, Andy Simmonett
                             and Daniel Smith
                              UKS Reference
                       32 Threads,    500 MiB Core
         ---------------------------------------------------------

  ==> Geometry <==

    Molecular point group: c1
    Full point group: C1

    Geometry (in Angstrom), charge = 0, multiplicity = 1:

       Center              X                  Y                   Z               Mass       
    ------------   -----------------  -----------------  -----------------  -----------------
         C            0.114248894225    -0.153883349642     0.037601260220    12.000000000000
         O           -1.136200968230    -0.223343059715    -0.034601960574    15.994914619560
         O            1.064027259226     0.524570096346    -0.028433193281    15.994914619560
         H            0.404404132401    -1.556641037410     0.327591212980     1.007825032070
         H           -0.619297006187    -1.391787947531     0.225110658444     1.007825032070

  Running in c1 symmetry.

  Rotational constants: A =      3.25532  B =      0.37991  C =      0.34021 [cm^-1]
  Rotational constants: A =  97591.90137  B =  11389.36707  C =  10199.09237 [MHz]
  Nuclear repulsion =   70.275272826307770

  Charge       = 0
  Multiplicity = 1
  Electrons    = 24
  Nalpha       = 12
  Nbeta        = 12

  ==> Algorithm <==

  SCF Algorithm Type is DF.
  DIIS enabled.
  MOM disabled.
  Fractional occupation disabled.
  Guess Type is GWH.
  Energy threshold   = 1.00e-08
  Density threshold  = 1.00e-08
  Integral threshold = 0.00e+00

  ==> Primary Basis <==

  Basis Set: DEF2-SVP
    Blend: DEF2-SVP
    Number of shells: 24
    Number of basis function: 52
    Number of Cartesian functions: 55
    Spherical Harmonics?: true
    Max angular momentum: 2

  ==> DFT Potential <==

   => Composite Functional: B3LYP <= 

    B3LYP Hyb-GGA Exchange-Correlation Functional

    P. J. Stephens, F. J. Devlin, C. F. Chabalowski, and M. J. Frisch, J. Phys. Chem. 98, 11623 (1994)

    Deriv               =              1
    GGA                 =           TRUE
    Meta                =          FALSE

    Exchange Hybrid     =           TRUE
    MP2 Hybrid          =          FALSE

   => Exchange Functionals <=

    0.0800   Slater exchange
    0.7200         Becke 88

   => Exact (HF) Exchange <=

    0.2000               HF 

   => Correlation Functionals <=

    0.1900   Vosko, Wilk & Nusair (VWN5_RPA)
    0.8100   Lee, Yang & Parr

   => Molecular Quadrature <=

    Radial Scheme       =       TREUTLER
    Pruning Scheme      =           FLAT
    Nuclear Scheme      =       TREUTLER

    BS radius alpha     =              1
    Pruning alpha       =              1
    Radial Points       =             75
    Spherical Points    =            302
    Total Points        =         109988
    Total Blocks        =            893
    Max Points          =            256
    Max Functions       =             51

   => Loading Basis Set <=

    Name: (DEF2-SVP AUX)
    Role: JKFIT
    Keyword: DF_BASIS_SCF
    atoms 1   entry C          line   203 file /root/psi4conda/share/psi4/basis/def2-svp-jkfit.gbs 
    atoms 2-3 entry O          line   323 file /root/psi4conda/share/psi4/basis/def2-svp-jkfit.gbs 
    atoms 4-5 entry H          line    23 file /root/psi4conda/share/psi4/basis/def2-svp-jkfit.gbs 

  ==> Pre-Iterations <==

   -------------------------------------------------------
    Irrep   Nso     Nmo     Nalpha   Nbeta   Ndocc  Nsocc
   -------------------------------------------------------
     A         52      52       0       0       0       0
   -------------------------------------------------------
    Total      52      52      12      12      12       0
   -------------------------------------------------------

  ==> Integral Setup <==

  DFHelper Memory: AOs need 0.008 [GiB]; user supplied 0.366 [GiB]. Using in-core AOs.

  ==> MemDFJK: Density-Fitted J/K Matrices <==

    J tasked:                   Yes
    K tasked:                   Yes
    wK tasked:                   No
    OpenMP threads:              32
    Memory (MB):                375
    Algorithm:                 Core
    Schwarz Cutoff:           1E-12
    Mask sparsity (%):       0.0740
    Fitting Condition:        1E-12

   => Auxiliary Basis Set <=

  Basis Set: (DEF2-SVP AUX)
    Blend: DEF2-SVP-JKFIT
    Number of shells: 87
    Number of basis function: 265
    Number of Cartesian functions: 315
    Spherical Harmonics?: true
    Max angular momentum: 4

  Minimum eigenvalue in the overlap matrix is 9.0513565230E-03.
  Using Symmetric Orthogonalization.

  SCF Guess: Generalized Wolfsberg-Helmholtz.

  ==> Iterations <==

                           Total Energy        Delta E     RMS |[F,P]|

   @DF-UKS iter   1:  -187.44170467066783   -1.87442e+02   1.80452e-01 
   @DF-UKS iter   2:  -188.70958098271484   -1.26788e+00   8.86487e-02 DIIS
   @DF-UKS iter   3:  -188.82285868915184   -1.13278e-01   7.88678e-02 DIIS
   @DF-UKS iter   4:  -189.44964425103240   -6.26786e-01   2.90467e-02 DIIS
   @DF-UKS iter   5:  -189.47646857324750   -2.68243e-02   1.86940e-02 DIIS
   @DF-UKS iter   6:  -189.50303965231194   -2.65711e-02   5.14368e-03 DIIS
   @DF-UKS iter   7:  -189.50577185207695   -2.73220e-03   7.12918e-04 DIIS
   @DF-UKS iter   8:  -189.50583348204063   -6.16300e-05   1.17200e-04 DIIS
   @DF-UKS iter   9:  -189.50583485730655   -1.37527e-06   1.31305e-05 DIIS
   @DF-UKS iter  10:  -189.50583488136314   -2.40566e-08   3.01117e-06 DIIS
   @DF-UKS iter  11:  -189.50583488243248   -1.06934e-09   3.27034e-07 DIIS
   @DF-UKS iter  12:  -189.50583488245798   -2.54943e-11   4.39765e-08 DIIS
   @DF-UKS iter  13:  -189.50583488245823   -2.55795e-13   1.55046e-08 DIIS
   @DF-UKS iter  14:  -189.50583488245846   -2.27374e-13   2.88434e-09 DIIS

  ==> Post-Iterations <==

   @Spin Contamination Metric:   0.000000000E+00
   @S^2 Expected:                0.000000000E+00
   @S^2 Observed:                0.000000000E+00
   @S   Expected:                0.000000000E+00
   @S   Observed:                0.000000000E+00

    Orbital Energies [Eh]
    ---------------------

    Alpha Occupied:                                                       

       1A    -19.199307     2A    -19.192487     3A    -10.394206  
       4A     -1.139850     5A     -1.082360     6A     -0.627251  
       7A     -0.551819     8A     -0.506055     9A     -0.500980  
      10A     -0.394042    11A     -0.358876    12A     -0.314796  

    Alpha Virtual:                                                        

      13A     -0.046805    14A     -0.004848    15A      0.073815  
      16A      0.158855    17A      0.301024    18A      0.405723  
      19A      0.407566    20A      0.450256    21A      0.514413  
      22A      0.559249    23A      0.672669    24A      0.841126  
      25A      0.898324    26A      0.920152    27A      1.016560  
      28A      1.016834    29A      1.133900    30A      1.134354  
      31A      1.276914    32A      1.340887    33A      1.453154  
      34A      1.505167    35A      1.583915    36A      1.654595  
      37A      1.691860    38A      1.705325    39A      1.987770  
      40A      2.192208    41A      2.266640    42A      2.584546  
      43A      2.639278    44A      2.673132    45A      2.692327  
      46A      2.831430    47A      3.016688    48A      3.232438  
      49A      3.331560    50A      3.341065    51A      3.561275  
      52A      3.744973  

    Beta Occupied:                                                        

       1A    -19.199307     2A    -19.192487     3A    -10.394206  
       4A     -1.139850     5A     -1.082360     6A     -0.627251  
       7A     -0.551819     8A     -0.506055     9A     -0.500980  
      10A     -0.394042    11A     -0.358876    12A     -0.314796  

    Beta Virtual:                                                         

      13A     -0.046805    14A     -0.004848    15A      0.073815  
      16A      0.158855    17A      0.301024    18A      0.405723  
      19A      0.407566    20A      0.450256    21A      0.514413  
      22A      0.559249    23A      0.672669    24A      0.841126  
      25A      0.898324    26A      0.920152    27A      1.016560  
      28A      1.016834    29A      1.133900    30A      1.134354  
      31A      1.276914    32A      1.340887    33A      1.453154  
      34A      1.505167    35A      1.583915    36A      1.654595  
      37A      1.691860    38A      1.705325    39A      1.987770  
      40A      2.192208    41A      2.266640    42A      2.584546  
      43A      2.639278    44A      2.673132    45A      2.692327  
      46A      2.831430    47A      3.016688    48A      3.232438  
      49A      3.331560    50A      3.341065    51A      3.561275  
      52A      3.744973  

    Final Occupation by Irrep:
              A 
    DOCC [    12 ]
    SOCC [     0 ]

  Energy converged.

  @DF-UKS Final Energy:  -189.50583488245846

   => Energetics <=

    Nuclear Repulsion Energy =             70.2752728263077699
    One-Electron Energy =                -397.5421679200550216
    Two-Electron Energy =                 156.5533899625260688
    DFT Exchange-Correlation Energy =     -18.7923297512372649
    Empirical Dispersion Energy =           0.0000000000000000
    VV10 Nonlocal Energy =                  0.0000000000000000
    Total Energy =                       -189.5058348824584868


  UHF NO Occupations:
  HONO-2 :   10  A 2.0000000
  HONO-1 :   11  A 2.0000000
  HONO-0 :   12  A 2.0000000
  LUNO+0 :   13  A 0.0000000
  LUNO+1 :   14  A 0.0000000
  LUNO+2 :   15  A 0.0000000
  LUNO+3 :   16  A 0.0000000



Properties will be evaluated at   0.000000,   0.000000,   0.000000 [a0]

Properties computed using the SCF density matrix

  Nuclear Dipole Moment: [e a0]
     X:    -0.2018      Y:    -2.7626      Z:     0.5178

  Electronic Dipole Moment: [e a0]
     X:     0.1106      Y:     2.1342      Z:    -0.4032

  Dipole Moment: [e a0]
     X:    -0.0912      Y:    -0.6284      Z:     0.1146     Total:     0.6453

  Dipole Moment: [D]
     X:    -0.2319      Y:    -1.5973      Z:     0.2914     Total:     1.6401


*** tstop() called on localhost.localdomain at Fri Mar 29 12:28:17 2019
Module time:
	user time   =     235.14 seconds =       3.92 minutes
	system time =      18.06 seconds =       0.30 minutes
	total time  =          9 seconds =       0.15 minutes
Total time:
	user time   =     832.03 seconds =      13.87 minutes
	system time =      64.86 seconds =       1.08 minutes
	total time  =         33 seconds =       0.55 minutes

*** tstart() called on localhost.localdomain
*** at Fri Mar 29 12:28:17 2019


         ------------------------------------------------------------
                                   SCF GRAD                          
                          Rob Parrish, Justin Turney,                
                       Andy Simmonett, and Alex Sokolov              
         ------------------------------------------------------------

  ==> Geometry <==

    Molecular point group: c1
    Full point group: C1

    Geometry (in Angstrom), charge = 0, multiplicity = 1:

       Center              X                  Y                   Z               Mass       
    ------------   -----------------  -----------------  -----------------  -----------------
         C            0.114248894225    -0.153883349642     0.037601260220    12.000000000000
         O           -1.136200968230    -0.223343059715    -0.034601960574    15.994914619560
         O            1.064027259226     0.524570096346    -0.028433193281    15.994914619560
         H            0.404404132401    -1.556641037410     0.327591212980     1.007825032070
         H           -0.619297006187    -1.391787947531     0.225110658444     1.007825032070

  Nuclear repulsion =   70.275272826307770

  ==> Basis Set <==

  Basis Set: DEF2-SVP
    Blend: DEF2-SVP
    Number of shells: 24
    Number of basis function: 52
    Number of Cartesian functions: 55
    Spherical Harmonics?: true
    Max angular momentum: 2

  ==> DFJKGrad: Density-Fitted SCF Gradients <==

    Gradient:                    1
    J tasked:                  Yes
    K tasked:                  Yes
    wK tasked:                  No
    OpenMP threads:             32
    Integrals threads:          32
    Memory (MB):               375
    Schwarz Cutoff:          0E+00
    Fitting Condition:       1E-12

   => Auxiliary Basis Set <=

  Basis Set: (DEF2-SVP AUX)
    Blend: DEF2-SVP-JKFIT
    Number of shells: 87
    Number of basis function: 265
    Number of Cartesian functions: 315
    Spherical Harmonics?: true
    Max angular momentum: 4

  ==> DFT Potential <==

   => Composite Functional: B3LYP <= 

    B3LYP Hyb-GGA Exchange-Correlation Functional

    P. J. Stephens, F. J. Devlin, C. F. Chabalowski, and M. J. Frisch, J. Phys. Chem. 98, 11623 (1994)

    Deriv               =              1
    GGA                 =           TRUE
    Meta                =          FALSE

    Exchange Hybrid     =           TRUE
    MP2 Hybrid          =          FALSE

   => Exchange Functionals <=

    0.0800   Slater exchange
    0.7200         Becke 88

   => Exact (HF) Exchange <=

    0.2000               HF 

   => Correlation Functionals <=

    0.1900   Vosko, Wilk & Nusair (VWN5_RPA)
    0.8100   Lee, Yang & Parr

   => Molecular Quadrature <=

    Radial Scheme       =       TREUTLER
    Pruning Scheme      =           FLAT
    Nuclear Scheme      =       TREUTLER

    BS radius alpha     =              1
    Pruning alpha       =              1
    Radial Points       =             75
    Spherical Points    =            302
    Total Points        =         109988
    Total Blocks        =            893
    Max Points          =            256
    Max Functions       =             51


  -Total Gradient:
     Atom            X                  Y                   Z
    ------   -----------------  -----------------  -----------------
       1        0.002084049359     0.000855672504     0.000003643382
       2       -0.000969969427     0.000248209845    -0.000108970235
       3       -0.001138237505    -0.000697418648     0.000037872544
       4       -0.000305011211    -0.000111865629     0.000015189243
       5        0.000376235885    -0.000289341347     0.000054295513


*** tstop() called on localhost.localdomain at Fri Mar 29 12:28:20 2019
Module time:
	user time   =      65.22 seconds =       1.09 minutes
	system time =       5.16 seconds =       0.09 minutes
	total time  =          3 seconds =       0.05 minutes
Total time:
	user time   =     897.30 seconds =      14.96 minutes
	system time =      70.02 seconds =       1.17 minutes
	total time  =         36 seconds =       0.60 minutes

  //>>>>>>>>>>>>>>>>>>>>>>>>>>>>>>>>>>>//
  //    Loading displacement 3 of 19   //
  //<<<<<<<<<<<<<<<<<<<<<<<<<<<<<<<<<<<//
gradient() will perform analytic gradient computation.

*** tstart() called on localhost.localdomain
*** at Fri Mar 29 12:28:20 2019

   => Loading Basis Set <=

    Name: DEF2-SVP
    Role: ORBITAL
    Keyword: BASIS
    atoms 1   entry C          line    90 file /root/psi4conda/share/psi4/basis/def2-svp.gbs 
    atoms 2-3 entry O          line   130 file /root/psi4conda/share/psi4/basis/def2-svp.gbs 
    atoms 4-5 entry H          line    15 file /root/psi4conda/share/psi4/basis/def2-svp.gbs 


         ---------------------------------------------------------
                                   SCF
            by Justin Turney, Rob Parrish, Andy Simmonett
                             and Daniel Smith
                              UKS Reference
                       32 Threads,    500 MiB Core
         ---------------------------------------------------------

  ==> Geometry <==

    Molecular point group: c1
    Full point group: C1

    Geometry (in Angstrom), charge = 0, multiplicity = 1:

       Center              X                  Y                   Z               Mass       
    ------------   -----------------  -----------------  -----------------  -----------------
         C            0.113595072843    -0.154534357278     0.037609410228    12.000000000000
         O           -1.135953948843    -0.223178074420    -0.034599205373    15.994914619560
         O            1.064230739991     0.524863318475    -0.028450851374    15.994914619560
         H            0.404726154629    -1.556369147367     0.327668463832     1.007825032070
         H           -0.618983853565    -1.391580485518     0.225172886571     1.007825032070

  Running in c1 symmetry.

  Rotational constants: A =      3.25388  B =      0.37992  C =      0.34020 [cm^-1]
  Rotational constants: A =  97548.75532  B =  11389.73660  C =  10198.91713 [MHz]
  Nuclear repulsion =   70.270208198724731

  Charge       = 0
  Multiplicity = 1
  Electrons    = 24
  Nalpha       = 12
  Nbeta        = 12

  ==> Algorithm <==

  SCF Algorithm Type is DF.
  DIIS enabled.
  MOM disabled.
  Fractional occupation disabled.
  Guess Type is GWH.
  Energy threshold   = 1.00e-08
  Density threshold  = 1.00e-08
  Integral threshold = 0.00e+00

  ==> Primary Basis <==

  Basis Set: DEF2-SVP
    Blend: DEF2-SVP
    Number of shells: 24
    Number of basis function: 52
    Number of Cartesian functions: 55
    Spherical Harmonics?: true
    Max angular momentum: 2

  ==> DFT Potential <==

   => Composite Functional: B3LYP <= 

    B3LYP Hyb-GGA Exchange-Correlation Functional

    P. J. Stephens, F. J. Devlin, C. F. Chabalowski, and M. J. Frisch, J. Phys. Chem. 98, 11623 (1994)

    Deriv               =              1
    GGA                 =           TRUE
    Meta                =          FALSE

    Exchange Hybrid     =           TRUE
    MP2 Hybrid          =          FALSE

   => Exchange Functionals <=

    0.0800   Slater exchange
    0.7200         Becke 88

   => Exact (HF) Exchange <=

    0.2000               HF 

   => Correlation Functionals <=

    0.1900   Vosko, Wilk & Nusair (VWN5_RPA)
    0.8100   Lee, Yang & Parr

   => Molecular Quadrature <=

    Radial Scheme       =       TREUTLER
    Pruning Scheme      =           FLAT
    Nuclear Scheme      =       TREUTLER

    BS radius alpha     =              1
    Pruning alpha       =              1
    Radial Points       =             75
    Spherical Points    =            302
    Total Points        =         109988
    Total Blocks        =            894
    Max Points          =            256
    Max Functions       =             51

   => Loading Basis Set <=

    Name: (DEF2-SVP AUX)
    Role: JKFIT
    Keyword: DF_BASIS_SCF
    atoms 1   entry C          line   203 file /root/psi4conda/share/psi4/basis/def2-svp-jkfit.gbs 
    atoms 2-3 entry O          line   323 file /root/psi4conda/share/psi4/basis/def2-svp-jkfit.gbs 
    atoms 4-5 entry H          line    23 file /root/psi4conda/share/psi4/basis/def2-svp-jkfit.gbs 

  ==> Pre-Iterations <==

   -------------------------------------------------------
    Irrep   Nso     Nmo     Nalpha   Nbeta   Ndocc  Nsocc
   -------------------------------------------------------
     A         52      52       0       0       0       0
   -------------------------------------------------------
    Total      52      52      12      12      12       0
   -------------------------------------------------------

  ==> Integral Setup <==

  DFHelper Memory: AOs need 0.008 [GiB]; user supplied 0.366 [GiB]. Using in-core AOs.

  ==> MemDFJK: Density-Fitted J/K Matrices <==

    J tasked:                   Yes
    K tasked:                   Yes
    wK tasked:                   No
    OpenMP threads:              32
    Memory (MB):                375
    Algorithm:                 Core
    Schwarz Cutoff:           1E-12
    Mask sparsity (%):       0.0740
    Fitting Condition:        1E-12

   => Auxiliary Basis Set <=

  Basis Set: (DEF2-SVP AUX)
    Blend: DEF2-SVP-JKFIT
    Number of shells: 87
    Number of basis function: 265
    Number of Cartesian functions: 315
    Spherical Harmonics?: true
    Max angular momentum: 4

  Minimum eigenvalue in the overlap matrix is 9.0508555808E-03.
  Using Symmetric Orthogonalization.

  SCF Guess: Generalized Wolfsberg-Helmholtz.

  ==> Iterations <==

                           Total Energy        Delta E     RMS |[F,P]|

   @DF-UKS iter   1:  -187.44375147147204   -1.87444e+02   3.24170e-01 
   @DF-UKS iter   2:  -188.71034461564793   -1.26659e+00   9.31810e-02 DIIS
   @DF-UKS iter   3:  -188.82281129060516   -1.12467e-01   6.60617e-02 DIIS
   @DF-UKS iter   4:  -189.44939947003544   -6.26588e-01   2.64376e-02 DIIS
   @DF-UKS iter   5:  -189.47645902662921   -2.70596e-02   1.77064e-02 DIIS
   @DF-UKS iter   6:  -189.50303141519913   -2.65724e-02   5.55925e-03 DIIS
   @DF-UKS iter   7:  -189.50577282392902   -2.74141e-03   1.06523e-03 DIIS
   @DF-UKS iter   8:  -189.50583479523667   -6.19713e-05   1.17191e-04 DIIS
   @DF-UKS iter   9:  -189.50583616920531   -1.37397e-06   1.45672e-05 DIIS
   @DF-UKS iter  10:  -189.50583619320216   -2.39968e-08   2.30764e-06 DIIS
   @DF-UKS iter  11:  -189.50583619426914   -1.06698e-09   3.83036e-07 DIIS
   @DF-UKS iter  12:  -189.50583619429486   -2.57216e-11   4.18222e-08 DIIS
   @DF-UKS iter  13:  -189.50583619429514   -2.84217e-13   1.18143e-08 DIIS
   @DF-UKS iter  14:  -189.50583619429503    1.13687e-13   2.56990e-09 DIIS

  ==> Post-Iterations <==

   @Spin Contamination Metric:   1.065814104E-14
   @S^2 Expected:                0.000000000E+00
   @S^2 Observed:                1.065814104E-14
   @S   Expected:                0.000000000E+00
   @S   Observed:                0.000000000E+00

    Orbital Energies [Eh]
    ---------------------

    Alpha Occupied:                                                       

       1A    -19.198959     2A    -19.192646     3A    -10.394229  
       4A     -1.139641     5A     -1.082213     6A     -0.627598  
       7A     -0.551785     8A     -0.505869     9A     -0.500789  
      10A     -0.393578    11A     -0.358779    12A     -0.315000  

    Alpha Virtual:                                                        

      13A     -0.046872    14A     -0.004970    15A      0.073599  
      16A      0.159024    17A      0.301005    18A      0.405753  
      19A      0.408047    20A      0.450170    21A      0.514363  
      22A      0.559221    23A      0.671505    24A      0.841402  
      25A      0.898412    26A      0.920065    27A      1.016547  
      28A      1.016739    29A      1.133730    30A      1.134090  
      31A      1.276892    32A      1.341199    33A      1.453311  
      34A      1.504874    35A      1.583952    36A      1.654524  
      37A      1.692208    38A      1.705418    39A      1.988433  
      40A      2.192746    41A      2.266308    42A      2.584766  
      43A      2.639199    44A      2.672855    45A      2.691677  
      46A      2.831637    47A      3.016822    48A      3.232132  
      49A      3.331330    50A      3.340406    51A      3.561076  
      52A      3.744295  

    Beta Occupied:                                                        

       1A    -19.198959     2A    -19.192646     3A    -10.394229  
       4A     -1.139641     5A     -1.082213     6A     -0.627598  
       7A     -0.551785     8A     -0.505869     9A     -0.500789  
      10A     -0.393578    11A     -0.358779    12A     -0.315000  

    Beta Virtual:                                                         

      13A     -0.046872    14A     -0.004970    15A      0.073599  
      16A      0.159024    17A      0.301005    18A      0.405753  
      19A      0.408047    20A      0.450170    21A      0.514363  
      22A      0.559221    23A      0.671505    24A      0.841402  
      25A      0.898412    26A      0.920065    27A      1.016547  
      28A      1.016739    29A      1.133730    30A      1.134090  
      31A      1.276892    32A      1.341199    33A      1.453311  
      34A      1.504874    35A      1.583952    36A      1.654524  
      37A      1.692208    38A      1.705418    39A      1.988433  
      40A      2.192746    41A      2.266308    42A      2.584766  
      43A      2.639199    44A      2.672855    45A      2.691677  
      46A      2.831637    47A      3.016822    48A      3.232132  
      49A      3.331330    50A      3.340406    51A      3.561076  
      52A      3.744295  

    Final Occupation by Irrep:
              A 
    DOCC [    12 ]
    SOCC [     0 ]

  Energy converged.

  @DF-UKS Final Energy:  -189.50583619429503

   => Energetics <=

    Nuclear Repulsion Energy =             70.2702081987247311
    One-Electron Energy =                -397.5340763178234624
    Two-Electron Energy =                 156.5501641498061360
    DFT Exchange-Correlation Energy =     -18.7921322250024225
    Empirical Dispersion Energy =           0.0000000000000000
    VV10 Nonlocal Energy =                  0.0000000000000000
    Total Energy =                       -189.5058361942950285


  UHF NO Occupations:
  HONO-2 :   10  A 2.0000000
  HONO-1 :   11  A 2.0000000
  HONO-0 :   12  A 2.0000000
  LUNO+0 :   13  A 0.0000000
  LUNO+1 :   14  A 0.0000000
  LUNO+2 :   15  A 0.0000000
  LUNO+3 :   16  A 0.0000000



Properties will be evaluated at   0.000000,   0.000000,   0.000000 [a0]

Properties computed using the SCF density matrix

  Nuclear Dipole Moment: [e a0]
     X:    -0.2012      Y:    -2.7622      Z:     0.5180

  Electronic Dipole Moment: [e a0]
     X:     0.1066      Y:     2.1296      Z:    -0.4028

  Dipole Moment: [e a0]
     X:    -0.0946      Y:    -0.6326      Z:     0.1152     Total:     0.6499

  Dipole Moment: [D]
     X:    -0.2404      Y:    -1.6078      Z:     0.2927     Total:     1.6519


*** tstop() called on localhost.localdomain at Fri Mar 29 12:28:29 2019
Module time:
	user time   =     236.84 seconds =       3.95 minutes
	system time =      18.10 seconds =       0.30 minutes
	total time  =          9 seconds =       0.15 minutes
Total time:
	user time   =    1134.71 seconds =      18.91 minutes
	system time =      88.17 seconds =       1.47 minutes
	total time  =         45 seconds =       0.75 minutes

*** tstart() called on localhost.localdomain
*** at Fri Mar 29 12:28:29 2019


         ------------------------------------------------------------
                                   SCF GRAD                          
                          Rob Parrish, Justin Turney,                
                       Andy Simmonett, and Alex Sokolov              
         ------------------------------------------------------------

  ==> Geometry <==

    Molecular point group: c1
    Full point group: C1

    Geometry (in Angstrom), charge = 0, multiplicity = 1:

       Center              X                  Y                   Z               Mass       
    ------------   -----------------  -----------------  -----------------  -----------------
         C            0.113595072843    -0.154534357278     0.037609410228    12.000000000000
         O           -1.135953948843    -0.223178074420    -0.034599205373    15.994914619560
         O            1.064230739991     0.524863318475    -0.028450851374    15.994914619560
         H            0.404726154629    -1.556369147367     0.327668463832     1.007825032070
         H           -0.618983853565    -1.391580485518     0.225172886571     1.007825032070

  Nuclear repulsion =   70.270208198724731

  ==> Basis Set <==

  Basis Set: DEF2-SVP
    Blend: DEF2-SVP
    Number of shells: 24
    Number of basis function: 52
    Number of Cartesian functions: 55
    Spherical Harmonics?: true
    Max angular momentum: 2

  ==> DFJKGrad: Density-Fitted SCF Gradients <==

    Gradient:                    1
    J tasked:                  Yes
    K tasked:                  Yes
    wK tasked:                  No
    OpenMP threads:             32
    Integrals threads:          32
    Memory (MB):               375
    Schwarz Cutoff:          0E+00
    Fitting Condition:       1E-12

   => Auxiliary Basis Set <=

  Basis Set: (DEF2-SVP AUX)
    Blend: DEF2-SVP-JKFIT
    Number of shells: 87
    Number of basis function: 265
    Number of Cartesian functions: 315
    Spherical Harmonics?: true
    Max angular momentum: 4

  ==> DFT Potential <==

   => Composite Functional: B3LYP <= 

    B3LYP Hyb-GGA Exchange-Correlation Functional

    P. J. Stephens, F. J. Devlin, C. F. Chabalowski, and M. J. Frisch, J. Phys. Chem. 98, 11623 (1994)

    Deriv               =              1
    GGA                 =           TRUE
    Meta                =          FALSE

    Exchange Hybrid     =           TRUE
    MP2 Hybrid          =          FALSE

   => Exchange Functionals <=

    0.0800   Slater exchange
    0.7200         Becke 88

   => Exact (HF) Exchange <=

    0.2000               HF 

   => Correlation Functionals <=

    0.1900   Vosko, Wilk & Nusair (VWN5_RPA)
    0.8100   Lee, Yang & Parr

   => Molecular Quadrature <=

    Radial Scheme       =       TREUTLER
    Pruning Scheme      =           FLAT
    Nuclear Scheme      =       TREUTLER

    BS radius alpha     =              1
    Pruning alpha       =              1
    Radial Points       =             75
    Spherical Points    =            302
    Total Points        =         109988
    Total Blocks        =            894
    Max Points          =            256
    Max Functions       =             51


  -Total Gradient:
     Atom            X                  Y                   Z
    ------   -----------------  -----------------  -----------------
       1       -0.000723804890    -0.000657673713     0.000073228778
       2        0.000074174695     0.000267805252    -0.000028522898
       3        0.000615704964     0.000631061212    -0.000086090431
       4       -0.000258555792    -0.000129660428     0.000029606184
       5        0.000339834604    -0.000106289882     0.000013904287


*** tstop() called on localhost.localdomain at Fri Mar 29 12:28:32 2019
Module time:
	user time   =      66.20 seconds =       1.10 minutes
	system time =       5.27 seconds =       0.09 minutes
	total time  =          3 seconds =       0.05 minutes
Total time:
	user time   =    1200.97 seconds =      20.02 minutes
	system time =      93.45 seconds =       1.56 minutes
	total time  =         48 seconds =       0.80 minutes

  //>>>>>>>>>>>>>>>>>>>>>>>>>>>>>>>>>>>//
  //    Loading displacement 4 of 19   //
  //<<<<<<<<<<<<<<<<<<<<<<<<<<<<<<<<<<<//
gradient() will perform analytic gradient computation.

*** tstart() called on localhost.localdomain
*** at Fri Mar 29 12:28:32 2019

   => Loading Basis Set <=

    Name: DEF2-SVP
    Role: ORBITAL
    Keyword: BASIS
    atoms 1   entry C          line    90 file /root/psi4conda/share/psi4/basis/def2-svp.gbs 
    atoms 2-3 entry O          line   130 file /root/psi4conda/share/psi4/basis/def2-svp.gbs 
    atoms 4-5 entry H          line    15 file /root/psi4conda/share/psi4/basis/def2-svp.gbs 


         ---------------------------------------------------------
                                   SCF
            by Justin Turney, Rob Parrish, Andy Simmonett
                             and Daniel Smith
                              UKS Reference
                       32 Threads,    500 MiB Core
         ---------------------------------------------------------

  ==> Geometry <==

    Molecular point group: c1
    Full point group: C1

    Geometry (in Angstrom), charge = 0, multiplicity = 1:

       Center              X                  Y                   Z               Mass       
    ------------   -----------------  -----------------  -----------------  -----------------
         C            0.113595072843    -0.153226458026     0.037582635140    12.000000000000
         O           -1.135968839625    -0.223581819970    -0.034577057303    15.994914619560
         O            1.064253554787     0.524348653180    -0.028427652308    15.994914619560
         H            0.404661555118    -1.556900435339     0.327432526924     1.007825032070
         H           -0.619045013889    -1.392046283304     0.225007937901     1.007825032070

  Running in c1 symmetry.

  Rotational constants: A =      3.25851  B =      0.37991  C =      0.34024 [cm^-1]
  Rotational constants: A =  97687.53046  B =  11389.53280  C =  10200.26935 [MHz]
  Nuclear repulsion =   70.282963918657444

  Charge       = 0
  Multiplicity = 1
  Electrons    = 24
  Nalpha       = 12
  Nbeta        = 12

  ==> Algorithm <==

  SCF Algorithm Type is DF.
  DIIS enabled.
  MOM disabled.
  Fractional occupation disabled.
  Guess Type is GWH.
  Energy threshold   = 1.00e-08
  Density threshold  = 1.00e-08
  Integral threshold = 0.00e+00

  ==> Primary Basis <==

  Basis Set: DEF2-SVP
    Blend: DEF2-SVP
    Number of shells: 24
    Number of basis function: 52
    Number of Cartesian functions: 55
    Spherical Harmonics?: true
    Max angular momentum: 2

  ==> DFT Potential <==

   => Composite Functional: B3LYP <= 

    B3LYP Hyb-GGA Exchange-Correlation Functional

    P. J. Stephens, F. J. Devlin, C. F. Chabalowski, and M. J. Frisch, J. Phys. Chem. 98, 11623 (1994)

    Deriv               =              1
    GGA                 =           TRUE
    Meta                =          FALSE

    Exchange Hybrid     =           TRUE
    MP2 Hybrid          =          FALSE

   => Exchange Functionals <=

    0.0800   Slater exchange
    0.7200         Becke 88

   => Exact (HF) Exchange <=

    0.2000               HF 

   => Correlation Functionals <=

    0.1900   Vosko, Wilk & Nusair (VWN5_RPA)
    0.8100   Lee, Yang & Parr

   => Molecular Quadrature <=

    Radial Scheme       =       TREUTLER
    Pruning Scheme      =           FLAT
    Nuclear Scheme      =       TREUTLER

    BS radius alpha     =              1
    Pruning alpha       =              1
    Radial Points       =             75
    Spherical Points    =            302
    Total Points        =         109988
    Total Blocks        =            892
    Max Points          =            256
    Max Functions       =             51

   => Loading Basis Set <=

    Name: (DEF2-SVP AUX)
    Role: JKFIT
    Keyword: DF_BASIS_SCF
    atoms 1   entry C          line   203 file /root/psi4conda/share/psi4/basis/def2-svp-jkfit.gbs 
    atoms 2-3 entry O          line   323 file /root/psi4conda/share/psi4/basis/def2-svp-jkfit.gbs 
    atoms 4-5 entry H          line    23 file /root/psi4conda/share/psi4/basis/def2-svp-jkfit.gbs 

  ==> Pre-Iterations <==

   -------------------------------------------------------
    Irrep   Nso     Nmo     Nalpha   Nbeta   Ndocc  Nsocc
   -------------------------------------------------------
     A         52      52       0       0       0       0
   -------------------------------------------------------
    Total      52      52      12      12      12       0
   -------------------------------------------------------

  ==> Integral Setup <==

  DFHelper Memory: AOs need 0.008 [GiB]; user supplied 0.366 [GiB]. Using in-core AOs.

  ==> MemDFJK: Density-Fitted J/K Matrices <==

    J tasked:                   Yes
    K tasked:                   Yes
    wK tasked:                   No
    OpenMP threads:              32
    Memory (MB):                375
    Algorithm:                 Core
    Schwarz Cutoff:           1E-12
    Mask sparsity (%):       0.0740
    Fitting Condition:        1E-12

   => Auxiliary Basis Set <=

  Basis Set: (DEF2-SVP AUX)
    Blend: DEF2-SVP-JKFIT
    Number of shells: 87
    Number of basis function: 265
    Number of Cartesian functions: 315
    Spherical Harmonics?: true
    Max angular momentum: 4

  Minimum eigenvalue in the overlap matrix is 9.0339434079E-03.
  Using Symmetric Orthogonalization.

  SCF Guess: Generalized Wolfsberg-Helmholtz.

  ==> Iterations <==

                           Total Energy        Delta E     RMS |[F,P]|

   @DF-UKS iter   1:  -187.43808764362444   -1.87438e+02   2.64075e-01 
   @DF-UKS iter   2:  -188.70913128630406   -1.27104e+00   7.91725e-02 DIIS
   @DF-UKS iter   3:  -188.82327273799518   -1.14141e-01   7.99353e-02 DIIS
   @DF-UKS iter   4:  -189.44924255183469   -6.25970e-01   2.64794e-02 DIIS
   @DF-UKS iter   5:  -189.47641554625068   -2.71730e-02   1.67347e-02 DIIS
   @DF-UKS iter   6:  -189.50306261671818   -2.66471e-02   4.76649e-03 DIIS
   @DF-UKS iter   7:  -189.50577318105076   -2.71056e-03   1.12891e-03 DIIS
   @DF-UKS iter   8:  -189.50583488562154   -6.17046e-05   1.35829e-04 DIIS
   @DF-UKS iter   9:  -189.50583627184795   -1.38623e-06   1.13314e-05 DIIS
   @DF-UKS iter  10:  -189.50583629612373   -2.42758e-08   3.26204e-06 DIIS
   @DF-UKS iter  11:  -189.50583629719671   -1.07298e-09   3.01611e-07 DIIS
   @DF-UKS iter  12:  -189.50583629722286   -2.61480e-11   4.67776e-08 DIIS
   @DF-UKS iter  13:  -189.50583629722291   -5.68434e-14   1.28259e-08 DIIS
   @DF-UKS iter  14:  -189.50583629722286    5.68434e-14   3.89555e-09 DIIS

  ==> Post-Iterations <==

   @Spin Contamination Metric:  -4.085620731E-14
   @S^2 Expected:                0.000000000E+00
   @S^2 Observed:               -4.085620731E-14
   @S   Expected:                0.000000000E+00
   @S   Observed:                0.000000000E+00

    Orbital Energies [Eh]
    ---------------------

    Alpha Occupied:                                                       

       1A    -19.199392     2A    -19.192621     3A    -10.394325  
       4A     -1.140030     5A     -1.082670     6A     -0.627151  
       7A     -0.551994     8A     -0.506184     9A     -0.501159  
      10A     -0.394127    11A     -0.359037    12A     -0.314719  

    Alpha Virtual:                                                        

      13A     -0.046743    14A     -0.004756    15A      0.073869  
      16A      0.158693    17A      0.301065    18A      0.405643  
      19A      0.407869    20A      0.450102    21A      0.514518  
      22A      0.559263    23A      0.672826    24A      0.840992  
      25A      0.898219    26A      0.920255    27A      1.016380  
      28A      1.017040    29A      1.133903    30A      1.134375  
      31A      1.276767    32A      1.340545    33A      1.453045  
      34A      1.505379    35A      1.583616    36A      1.654870  
      37A      1.691809    38A      1.704880    39A      1.988090  
      40A      2.191699    41A      2.266808    42A      2.584504  
      43A      2.639142    44A      2.673070    45A      2.692397  
      46A      2.831136    47A      3.016688    48A      3.232915  
      49A      3.331674    50A      3.341978    51A      3.561506  
      52A      3.745483  

    Beta Occupied:                                                        

       1A    -19.199392     2A    -19.192621     3A    -10.394325  
       4A     -1.140030     5A     -1.082670     6A     -0.627151  
       7A     -0.551994     8A     -0.506184     9A     -0.501159  
      10A     -0.394127    11A     -0.359037    12A     -0.314719  

    Beta Virtual:                                                         

      13A     -0.046743    14A     -0.004756    15A      0.073869  
      16A      0.158693    17A      0.301065    18A      0.405643  
      19A      0.407869    20A      0.450102    21A      0.514518  
      22A      0.559263    23A      0.672826    24A      0.840992  
      25A      0.898219    26A      0.920255    27A      1.016380  
      28A      1.017040    29A      1.133903    30A      1.134375  
      31A      1.276767    32A      1.340545    33A      1.453045  
      34A      1.505379    35A      1.583616    36A      1.654870  
      37A      1.691809    38A      1.704880    39A      1.988090  
      40A      2.191699    41A      2.266808    42A      2.584504  
      43A      2.639142    44A      2.673070    45A      2.692397  
      46A      2.831136    47A      3.016688    48A      3.232915  
      49A      3.331674    50A      3.341978    51A      3.561506  
      52A      3.745483  

    Final Occupation by Irrep:
              A 
    DOCC [    12 ]
    SOCC [     0 ]

  Energy converged.

  @DF-UKS Final Energy:  -189.50583629722286

   => Energetics <=

    Nuclear Repulsion Energy =             70.2829639186574440
    One-Electron Energy =                -397.5546943618432465
    Two-Electron Energy =                 156.5583684973621530
    DFT Exchange-Correlation Energy =     -18.7924743513992034
    Empirical Dispersion Energy =           0.0000000000000000
    VV10 Nonlocal Energy =                  0.0000000000000000
    Total Energy =                       -189.5058362972228281


  UHF NO Occupations:
  HONO-2 :   10  A 2.0000000
  HONO-1 :   11  A 2.0000000
  HONO-0 :   12  A 2.0000000
  LUNO+0 :   13  A 0.0000000
  LUNO+1 :   14  A 0.0000000
  LUNO+2 :   15  A 0.0000000
  LUNO+3 :   16  A 0.0000000



Properties will be evaluated at   0.000000,   0.000000,   0.000000 [a0]

Properties computed using the SCF density matrix

  Nuclear Dipole Moment: [e a0]
     X:    -0.2013      Y:    -2.7631      Z:     0.5176

  Electronic Dipole Moment: [e a0]
     X:     0.1081      Y:     2.1378      Z:    -0.4036

  Dipole Moment: [e a0]
     X:    -0.0932      Y:    -0.6253      Z:     0.1140     Total:     0.6424

  Dipole Moment: [D]
     X:    -0.2369      Y:    -1.5894      Z:     0.2898     Total:     1.6329


*** tstop() called on localhost.localdomain at Fri Mar 29 12:28:41 2019
Module time:
	user time   =     232.99 seconds =       3.88 minutes
	system time =      18.56 seconds =       0.31 minutes
	total time  =          9 seconds =       0.15 minutes
Total time:
	user time   =    1434.50 seconds =      23.91 minutes
	system time =     112.06 seconds =       1.87 minutes
	total time  =         57 seconds =       0.95 minutes

*** tstart() called on localhost.localdomain
*** at Fri Mar 29 12:28:41 2019


         ------------------------------------------------------------
                                   SCF GRAD                          
                          Rob Parrish, Justin Turney,                
                       Andy Simmonett, and Alex Sokolov              
         ------------------------------------------------------------

  ==> Geometry <==

    Molecular point group: c1
    Full point group: C1

    Geometry (in Angstrom), charge = 0, multiplicity = 1:

       Center              X                  Y                   Z               Mass       
    ------------   -----------------  -----------------  -----------------  -----------------
         C            0.113595072843    -0.153226458026     0.037582635140    12.000000000000
         O           -1.135968839625    -0.223581819970    -0.034577057303    15.994914619560
         O            1.064253554787     0.524348653180    -0.028427652308    15.994914619560
         H            0.404661555118    -1.556900435339     0.327432526924     1.007825032070
         H           -0.619045013889    -1.392046283304     0.225007937901     1.007825032070

  Nuclear repulsion =   70.282963918657444

  ==> Basis Set <==

  Basis Set: DEF2-SVP
    Blend: DEF2-SVP
    Number of shells: 24
    Number of basis function: 52
    Number of Cartesian functions: 55
    Spherical Harmonics?: true
    Max angular momentum: 2

  ==> DFJKGrad: Density-Fitted SCF Gradients <==

    Gradient:                    1
    J tasked:                  Yes
    K tasked:                  Yes
    wK tasked:                  No
    OpenMP threads:             32
    Integrals threads:          32
    Memory (MB):               375
    Schwarz Cutoff:          0E+00
    Fitting Condition:       1E-12

   => Auxiliary Basis Set <=

  Basis Set: (DEF2-SVP AUX)
    Blend: DEF2-SVP-JKFIT
    Number of shells: 87
    Number of basis function: 265
    Number of Cartesian functions: 315
    Spherical Harmonics?: true
    Max angular momentum: 4

  ==> DFT Potential <==

   => Composite Functional: B3LYP <= 

    B3LYP Hyb-GGA Exchange-Correlation Functional

    P. J. Stephens, F. J. Devlin, C. F. Chabalowski, and M. J. Frisch, J. Phys. Chem. 98, 11623 (1994)

    Deriv               =              1
    GGA                 =           TRUE
    Meta                =          FALSE

    Exchange Hybrid     =           TRUE
    MP2 Hybrid          =          FALSE

   => Exchange Functionals <=

    0.0800   Slater exchange
    0.7200         Becke 88

   => Exact (HF) Exchange <=

    0.2000               HF 

   => Correlation Functionals <=

    0.1900   Vosko, Wilk & Nusair (VWN5_RPA)
    0.8100   Lee, Yang & Parr

   => Molecular Quadrature <=

    Radial Scheme       =       TREUTLER
    Pruning Scheme      =           FLAT
    Nuclear Scheme      =       TREUTLER

    BS radius alpha     =              1
    Pruning alpha       =              1
    Radial Points       =             75
    Spherical Points    =            302
    Total Points        =         109988
    Total Blocks        =            892
    Max Points          =            256
    Max Functions       =             51


  -Total Gradient:
     Atom            X                  Y                   Z
    ------   -----------------  -----------------  -----------------
       1        0.001087595373     0.000570643429     0.000054151276
       2       -0.000140409698    -0.000151901391    -0.000002483490
[...]
   @DF-UKS iter   6:  -189.50304755365121   -2.66094e-02   5.13908e-03 DIIS
   @DF-UKS iter   7:  -189.50577352714532   -2.72597e-03   8.60332e-04 DIIS
   @DF-UKS iter   8:  -189.50583536144808   -6.18343e-05   1.65343e-04 DIIS
   @DF-UKS iter   9:  -189.50583674151122   -1.38006e-06   1.14832e-05 DIIS
   @DF-UKS iter  10:  -189.50583676564426   -2.41330e-08   2.55737e-06 DIIS
   @DF-UKS iter  11:  -189.50583676671437   -1.07011e-09   3.20158e-07 DIIS
   @DF-UKS iter  12:  -189.50583676673992   -2.55511e-11   5.32334e-08 DIIS
   @DF-UKS iter  13:  -189.50583676674037   -4.54747e-13   1.45408e-08 DIIS
   @DF-UKS iter  14:  -189.50583676674049   -1.13687e-13   3.13717e-09 DIIS

  ==> Post-Iterations <==

   @Spin Contamination Metric:  -1.065814104E-14
   @S^2 Expected:                0.000000000E+00
   @S^2 Observed:               -1.065814104E-14
   @S   Expected:                0.000000000E+00
   @S   Observed:                0.000000000E+00

    Orbital Energies [Eh]
    ---------------------

    Alpha Occupied:                                                       

       1A    -19.199175     2A    -19.192634     3A    -10.394277  
       4A     -1.139834     5A     -1.082443     6A     -0.627374  
       7A     -0.551889     8A     -0.506026     9A     -0.500974  
      10A     -0.393852    11A     -0.358908    12A     -0.314859  

    Alpha Virtual:                                                        

      13A     -0.046808    14A     -0.004863    15A      0.073734  
      16A      0.158859    17A      0.301035    18A      0.405698  
      19A      0.407958    20A      0.450136    21A      0.514440  
      22A      0.559242    23A      0.672166    24A      0.841197  
      25A      0.898316    26A      0.920159    27A      1.016548  
      28A      1.016805    29A      1.133820    30A      1.134229  
      31A      1.276830    32A      1.340872    33A      1.453177  
      34A      1.505127    35A      1.583784    36A      1.654697  
      37A      1.692012    38A      1.705145    39A      1.988261  
      40A      2.192225    41A      2.266555    42A      2.584635  
      43A      2.639171    44A      2.672963    45A      2.692036  
      46A      2.831387    47A      3.016757    48A      3.232525  
      49A      3.331500    50A      3.341193    51A      3.561291  
      52A      3.744888  

    Beta Occupied:                                                        

       1A    -19.199175     2A    -19.192634     3A    -10.394277  
       4A     -1.139834     5A     -1.082443     6A     -0.627374  
       7A     -0.551889     8A     -0.506026     9A     -0.500974  
      10A     -0.393852    11A     -0.358908    12A     -0.314859  

    Beta Virtual:                                                         

      13A     -0.046808    14A     -0.004863    15A      0.073734  
      16A      0.158859    17A      0.301035    18A      0.405698  
      19A      0.407958    20A      0.450136    21A      0.514440  
      22A      0.559242    23A      0.672166    24A      0.841197  
      25A      0.898316    26A      0.920159    27A      1.016548  
      28A      1.016805    29A      1.133820    30A      1.134229  
      31A      1.276830    32A      1.340872    33A      1.453177  
      34A      1.505127    35A      1.583784    36A      1.654697  
      37A      1.692012    38A      1.705145    39A      1.988261  
      40A      2.192225    41A      2.266555    42A      2.584635  
      43A      2.639171    44A      2.672963    45A      2.692036  
      46A      2.831387    47A      3.016757    48A      3.232525  
      49A      3.331500    50A      3.341193    51A      3.561291  
      52A      3.744888  

    Final Occupation by Irrep:
              A 
    DOCC [    12 ]
    SOCC [     0 ]

  Energy converged.

  @DF-UKS Final Energy:  -189.50583676674049

   => Energetics <=

    Nuclear Repulsion Energy =             70.2765897196903495
    One-Electron Energy =                -397.5443949511386563
    Two-Electron Energy =                 156.5542717339266119
    DFT Exchange-Correlation Energy =     -18.7923032692188023
    Empirical Dispersion Energy =           0.0000000000000000
    VV10 Nonlocal Energy =                  0.0000000000000000
    Total Energy =                       -189.5058367667404582


  UHF NO Occupations:
  HONO-2 :   10  A 2.0000000
  HONO-1 :   11  A 2.0000000
  HONO-0 :   12  A 2.0000000
  LUNO+0 :   13  A 0.0000000
  LUNO+1 :   14  A 0.0000000
  LUNO+2 :   15  A 0.0000000
  LUNO+3 :   16  A 0.0000000



Properties will be evaluated at   0.000000,   0.000000,   0.000000 [a0]

Properties computed using the SCF density matrix

  Nuclear Dipole Moment: [e a0]
     X:    -0.2013      Y:    -2.7626      Z:     0.5178

  Electronic Dipole Moment: [e a0]
     X:     0.1074      Y:     2.1337      Z:    -0.4032

  Dipole Moment: [e a0]
     X:    -0.0939      Y:    -0.6289      Z:     0.1146     Total:     0.6462

  Dipole Moment: [D]
     X:    -0.2387      Y:    -1.5986      Z:     0.2913     Total:     1.6424


*** tstop() called on localhost.localdomain at Fri Mar 29 12:31:36 2019
Module time:
	user time   =     237.01 seconds =       3.95 minutes
	system time =      17.86 seconds =       0.30 minutes
	total time  =          9 seconds =       0.15 minutes
Total time:
	user time   =    5886.65 seconds =      98.11 minutes
	system time =     448.22 seconds =       7.47 minutes
	total time  =        232 seconds =       3.87 minutes

*** tstart() called on localhost.localdomain
*** at Fri Mar 29 12:31:36 2019


         ------------------------------------------------------------
                                   SCF GRAD                          
                          Rob Parrish, Justin Turney,                
                       Andy Simmonett, and Alex Sokolov              
         ------------------------------------------------------------

  ==> Geometry <==

    Molecular point group: c1
    Full point group: C1

    Geometry (in Angstrom), charge = 0, multiplicity = 1:

       Center              X                  Y                   Z               Mass       
    ------------   -----------------  -----------------  -----------------  -----------------
         C            0.113595072843    -0.153880407652     0.037596022684    12.000000000000
         O           -1.135961394234    -0.223379947195    -0.034588131338    15.994914619560
         O            1.064242147389     0.524605985828    -0.028439251841    15.994914619560
         H            0.404693854873    -1.556634791353     0.327550495378     1.007825032070
         H           -0.619014433727    -1.391813384411     0.225090412236     1.007825032070

  Nuclear repulsion =   70.276589719690364

  ==> Basis Set <==

  Basis Set: DEF2-SVP
    Blend: DEF2-SVP
    Number of shells: 24
    Number of basis function: 52
    Number of Cartesian functions: 55
    Spherical Harmonics?: true
    Max angular momentum: 2

  ==> DFJKGrad: Density-Fitted SCF Gradients <==

    Gradient:                    1
    J tasked:                  Yes
    K tasked:                  Yes
    wK tasked:                  No
    OpenMP threads:             32
    Integrals threads:          32
    Memory (MB):               375
    Schwarz Cutoff:          0E+00
    Fitting Condition:       1E-12

   => Auxiliary Basis Set <=

  Basis Set: (DEF2-SVP AUX)
    Blend: DEF2-SVP-JKFIT
    Number of shells: 87
    Number of basis function: 265
    Number of Cartesian functions: 315
    Spherical Harmonics?: true
    Max angular momentum: 4

  ==> DFT Potential <==

   => Composite Functional: B3LYP <= 

    B3LYP Hyb-GGA Exchange-Correlation Functional

    P. J. Stephens, F. J. Devlin, C. F. Chabalowski, and M. J. Frisch, J. Phys. Chem. 98, 11623 (1994)

    Deriv               =              1
    GGA                 =           TRUE
    Meta                =          FALSE

    Exchange Hybrid     =           TRUE
    MP2 Hybrid          =          FALSE

   => Exchange Functionals <=

    0.0800   Slater exchange
    0.7200         Becke 88

   => Exact (HF) Exchange <=

    0.2000               HF 

   => Correlation Functionals <=

    0.1900   Vosko, Wilk & Nusair (VWN5_RPA)
    0.8100   Lee, Yang & Parr

   => Molecular Quadrature <=

    Radial Scheme       =       TREUTLER
    Pruning Scheme      =           FLAT
    Nuclear Scheme      =       TREUTLER

    BS radius alpha     =              1
    Pruning alpha       =              1
    Radial Points       =             75
    Spherical Points    =            302
    Total Points        =         109988
    Total Blocks        =            892
    Max Points          =            256
    Max Functions       =             51


  -Total Gradient:
     Atom            X                  Y                   Z
    ------   -----------------  -----------------  -----------------
       1        0.000180148394    -0.000043510358     0.000063678566
       2       -0.000032717824     0.000058079242    -0.000015472988
       3       -0.000042285038     0.000077454330    -0.000043650691
       4       -0.000176178571    -0.000039442727     0.000005849618
       5        0.000117838963    -0.000047609250    -0.000008373917


*** tstop() called on localhost.localdomain at Fri Mar 29 12:31:39 2019
Module time:
	user time   =      64.32 seconds =       1.07 minutes
	system time =       5.20 seconds =       0.09 minutes
	total time  =          3 seconds =       0.05 minutes
Total time:
	user time   =    5951.02 seconds =      99.18 minutes
	system time =     453.43 seconds =       7.56 minutes
	total time  =        235 seconds =       3.92 minutes

-------------------------------------------------------------

  Computing second-derivative from gradients using projected, 
  symmetry-adapted, cartesian coordinates (fd_freq_1).

  19 gradients passed in, including the reference geometry.
  Generating complete list of displacements from unique ones.


-------------------------------------------------------------


  ==> Harmonic Vibrational Analysis <==

  non-mass-weighted Hessian:       Symmetric? True   Hermitian? True   Lin Dep Dim?  6 (0)
  projection of translations (True) and rotations (True) removed 6 degrees of freedom (6)
  total projector:                 Symmetric? True   Hermitian? True   Lin Dep Dim?  6 (6)
  mass-weighted Hessian:           Symmetric? True   Hermitian? True   Lin Dep Dim?  6 (0)
  pre-proj  low-frequency mode:    0.0000i [cm^-1]
  pre-proj  low-frequency mode:    0.0000i [cm^-1]
  pre-proj  low-frequency mode:    0.0000i [cm^-1]
  pre-proj  low-frequency mode:    0.0000  [cm^-1]
  pre-proj  low-frequency mode:    0.0000  [cm^-1]
  pre-proj  low-frequency mode:    0.0000  [cm^-1]
  pre-proj  low-frequency mode:    0.0000  [cm^-1]
  pre-proj  all modes:['2214.5805i' '0.0000i' '0.0000i' '0.0000' '0.0000' '0.0000' '0.0000'
 '584.7104' '739.8419' '881.9819' '1076.6719' '1363.5602' '1744.0981'
 '2071.3932' '2174.2553']
  projected mass-weighted Hessian: Symmetric? True   Hermitian? True   Lin Dep Dim?  6 (6)
  post-proj low-frequency mode: 2214.5805i [cm^-1] (V)
  post-proj low-frequency mode:    0.0000i [cm^-1] (TR)
  post-proj low-frequency mode:    0.0000i [cm^-1] (TR)
  post-proj low-frequency mode:    0.0000i [cm^-1] (TR)
  post-proj low-frequency mode:    0.0000i [cm^-1] (TR)
  post-proj low-frequency mode:    0.0000  [cm^-1] (TR)
  post-proj low-frequency mode:    0.0000  [cm^-1] (TR)
  post-proj  all modes:['2214.5805i' '0.0000i' '0.0000i' '0.0000i' '0.0000i' '0.0000' '0.0000'
 '584.7104' '739.8419' '881.9819' '1076.6719' '1363.5602' '1744.0981'
 '2071.3932' '2174.2553']

  Vibration                       1                   8                   9           
  Freq [cm^-1]                2214.5805i           584.7104            739.8419       
  Irrep                           A                   A                   A           
  Reduced mass [u]              1.1623              2.5982             10.5712        
  Force const [mDyne/A]        -3.3586              0.5234              3.4092        
  Turning point v=0 [a0]        0.0000              0.2815              0.1241        
  RMS dev v=0 [a0 u^1/2]        0.0000              0.3209              0.2853        
  Char temp [K]                 0.0000             841.2668           1064.4662       
  ----------------------------------------------------------------------------------
      1   C               -0.08  0.07 -0.02   -0.02  0.06  0.34   -0.14  0.57 -0.12   
      2   O                0.02  0.03 -0.00    0.00 -0.01 -0.06   -0.27 -0.35  0.05   
      3   O                0.00 -0.03  0.01    0.01 -0.02 -0.12    0.40 -0.12  0.05   
      4   H               -0.12 -0.37  0.06    0.01 -0.02 -0.11   -0.05  0.27 -0.06   
      5   H                0.74 -0.51  0.15    0.06 -0.17 -0.90   -0.26  0.34 -0.08   

  Vibration                       10                  11                  12          
  Freq [cm^-1]                 881.9819           1076.6719           1363.5602       
  Irrep                           A                   A                   A           
  Reduced mass [u]              1.1432              1.1847              6.8137        
  Force const [mDyne/A]         0.5239              0.8092              7.4642        
  Turning point v=0 [a0]        0.3456              0.3072              0.1138        
  RMS dev v=0 [a0 u^1/2]        0.2613              0.2365              0.2101        
  Char temp [K]               1268.9736           1549.0888           1961.8565       
  ----------------------------------------------------------------------------------
      1   C               -0.02 -0.05  0.01    0.01 -0.02 -0.10   -0.21  0.28 -0.07   
      2   O               -0.06  0.03 -0.01   -0.00  0.01  0.05    0.41 -0.03  0.03   
      3   O                0.01 -0.04  0.01   -0.00  0.00  0.02   -0.25 -0.24  0.03   
      4   H                0.56  0.66 -0.09   -0.05  0.14  0.72    0.20  0.57 -0.10   
      5   H                0.47  0.06  0.02    0.04 -0.13 -0.66   -0.26  0.36 -0.09   

  Vibration                       13                  14                  15          
  Freq [cm^-1]                1744.0981           2071.3932           2174.2553       
  Irrep                           A                   A                   A           
  Reduced mass [u]              1.0918              1.0369              6.5364        
  Force const [mDyne/A]         1.9568              2.6212             18.2058        
  Turning point v=0 [a0]        0.2515              0.2368              0.0920        
  RMS dev v=0 [a0 u^1/2]        0.1858              0.1705              0.1664        
  Char temp [K]               2509.3651           2980.2691           3128.2645       
  ----------------------------------------------------------------------------------
      1   C                0.04  0.03 -0.00   -0.02  0.03 -0.01    0.54  0.24 -0.01   
      2   O               -0.03  0.01 -0.00   -0.01  0.03 -0.01   -0.15  0.01 -0.01   
      3   O               -0.04 -0.03  0.00    0.01 -0.01  0.00   -0.25 -0.17  0.02   
      4   H                0.38 -0.57  0.14    0.70 -0.25  0.10   -0.25  0.31 -0.08   
      5   H                0.25  0.65 -0.11   -0.44 -0.48  0.06    0.06 -0.60  0.12   

  ==> Thermochemistry Components <==

  Entropy, S
    Electronic S            0.000 [cal/(mol K)]        0.000 [J/(mol K)]       0.00000000 [mEh/K] (multiplicity = 1)
    Translational S        37.404 [cal/(mol K)]      156.497 [J/(mol K)]       0.05960663 [mEh/K] (mol. weight = 46.0055 [u], P = 101325.00 [Pa])
    Rotational S           20.877 [cal/(mol K)]       87.350 [J/(mol K)]       0.03326983 [mEh/K] (symmetry no. = 1)
    Vibrational S           0.984 [cal/(mol K)]        4.118 [J/(mol K)]       0.00156845 [mEh/K]
  Total S                  59.265 [cal/(mol K)]      247.965 [J/(mol K)]       0.09444491 [mEh/K]
  Correction S              0.000 [cal/(mol K)]        0.000 [J/(mol K)]       0.00000000 [mEh/K]

  Constant volume heat capacity, Cv
    Electronic Cv           0.000 [cal/(mol K)]        0.000 [J/(mol K)]       0.00000000 [mEh/K]
    Translational Cv        2.981 [cal/(mol K)]       12.472 [J/(mol K)]       0.00475022 [mEh/K]
    Rotational Cv           2.981 [cal/(mol K)]       12.472 [J/(mol K)]       0.00475022 [mEh/K]
    Vibrational Cv          2.811 [cal/(mol K)]       11.761 [J/(mol K)]       0.00447964 [mEh/K]
  Total Cv                  8.773 [cal/(mol K)]       36.705 [J/(mol K)]       0.01398008 [mEh/K]
  Correction Cv             0.000 [cal/(mol K)]        0.000 [J/(mol K)]       0.00000000 [mEh/K]

  Constant pressure heat capacity, Cp
    Electronic Cp           0.000 [cal/(mol K)]        0.000 [J/(mol K)]       0.00000000 [mEh/K]
    Translational Cp        4.968 [cal/(mol K)]       20.786 [J/(mol K)]       0.00791704 [mEh/K]
    Rotational Cp           2.981 [cal/(mol K)]       12.472 [J/(mol K)]       0.00475022 [mEh/K]
    Vibrational Cp          2.811 [cal/(mol K)]       11.761 [J/(mol K)]       0.00447964 [mEh/K]
  Total Cp                 10.760 [cal/(mol K)]       45.019 [J/(mol K)]       0.01714690 [mEh/K]
  Correction Cp             0.000 [cal/(mol K)]        0.000 [J/(mol K)]       0.00000000 [mEh/K]

  ==> Thermochemistry Energy Analysis <==

  Raw electronic energy, E0
  Total E0, Electronic energy at well bottom at 0 [K]                 -189.50583677 [Eh]

  Zero-point energy, ZPE_vib = Sum_i nu_i / 2
    Electronic ZPE          0.000 [kcal/mol]        0.000 [kJ/mol]       0.00000000 [Eh]
    Translational ZPE       0.000 [kcal/mol]        0.000 [kJ/mol]       0.00000000 [Eh]
    Rotational ZPE          0.000 [kcal/mol]        0.000 [kJ/mol]       0.00000000 [Eh]
    Vibrational ZPE        15.206 [kcal/mol]       63.620 [kJ/mol]       0.02423175 [Eh]        5318.255 [cm^-1]
  Correction ZPE           15.206 [kcal/mol]       63.620 [kJ/mol]       0.02423175 [Eh]        5318.255 [cm^-1]
  Total ZPE, Electronic energy at 0 [K]                               -189.48160501 [Eh]

  Thermal Energy, E (includes ZPE)
    Electronic E            0.000 [kcal/mol]        0.000 [kJ/mol]       0.00000000 [Eh]
    Translational E         0.889 [kcal/mol]        3.718 [kJ/mol]       0.00141628 [Eh]
    Rotational E            0.889 [kcal/mol]        3.718 [kJ/mol]       0.00141628 [Eh]
    Vibrational E          15.433 [kcal/mol]       64.572 [kJ/mol]       0.02459418 [Eh]
  Correction E             17.211 [kcal/mol]       72.009 [kJ/mol]       0.02742674 [Eh]
  Total E, Electronic energy at  298.15 [K]                           -189.47841003 [Eh]

  Enthalpy, H_trans = E_trans + k_B * T
    Electronic H            0.000 [kcal/mol]        0.000 [kJ/mol]       0.00000000 [Eh]
    Translational H         1.481 [kcal/mol]        6.197 [kJ/mol]       0.00236046 [Eh]
    Rotational H            0.889 [kcal/mol]        3.718 [kJ/mol]       0.00141628 [Eh]
    Vibrational H          15.433 [kcal/mol]       64.572 [kJ/mol]       0.02459418 [Eh]
  Correction H             17.803 [kcal/mol]       74.488 [kJ/mol]       0.02837093 [Eh]
  Total H, Enthalpy at  298.15 [K]                                    -189.47746584 [Eh]

  Gibbs free energy, G = H - T * S
    Electronic G            0.000 [kcal/mol]        0.000 [kJ/mol]       0.00000000 [Eh]
    Translational G        -9.671 [kcal/mol]      -40.462 [kJ/mol]      -0.01541125 [Eh]
    Rotational G           -5.336 [kcal/mol]      -22.325 [kJ/mol]      -0.00850312 [Eh]
    Vibrational G          15.140 [kcal/mol]       63.344 [kJ/mol]       0.02412655 [Eh]
  Correction G              0.133 [kcal/mol]        0.557 [kJ/mol]       0.00021218 [Eh]
  Total G, Free enthalpy at  298.15 [K]                               -189.50562459 [Eh]

    Psi4 stopped on: Friday, 29 March 2019 12:31PM
    Psi4 wall time for execution: 0:03:55.18

*** Psi4 exiting successfully. Buy a developer a beer!
