
    -----------------------------------------------------------------------
          Psi4: An Open-Source Ab Initio Electronic Structure Package
                               Psi4 1.2.1 release

                         Git: Rev {HEAD} 406f4de 


    R. M. Parrish, L. A. Burns, D. G. A. Smith, A. C. Simmonett,
    A. E. DePrince III, E. G. Hohenstein, U. Bozkaya, A. Yu. Sokolov,
    R. Di Remigio, R. M. Richard, J. F. Gonthier, A. M. James,
    H. R. McAlexander, A. Kumar, M. Saitow, X. Wang, B. P. Pritchard,
    P. Verma, H. F. Schaefer III, K. Patkowski, R. A. King, E. F. Valeev,
    F. A. Evangelista, J. M. Turney, T. D. Crawford, and C. D. Sherrill,
    J. Chem. Theory Comput. 13(7) pp 3185--3197 (2017).
    (doi: 10.1021/acs.jctc.7b00174)


                         Additional Contributions by
    P. Kraus, H. Kruse, M. H. Lechner, M. C. Schieber, and R. A. Shaw

    -----------------------------------------------------------------------


    Psi4 started on: Friday, 22 March 2019 09:40AM

    Process ID: 1404
    Host:       DESKTOP-QL22TIG
    PSIDATADIR: /home/wderricotte/src/psi4conda/share/psi4
    Memory:     500.0 MiB
    Threads:    1
    
  ==> Input File <==

--------------------------------------------------------------------------
molecule{
0 1
    C            0.129784220059    -0.143510255477     0.036169310292
    O           -1.154576783693    -0.249347483617    -0.030169152237
    O            1.080794459278     0.552841892869    -0.032650887544
    H            0.341375655214    -1.653518907106     0.337786902363
    H           -0.715715098318    -1.454405581870     0.228550935085 
}

set{
   basis 3-21G
   freeze_core True
   reference uhf
   full_hess_every 0
   normal_modes_write True
}


set_num_threads(1)
frequencies('b3lyp')
--------------------------------------------------------------------------
  Threads set to 1 by Python driver.
gradient() will perform analytic gradient computation.

*** tstart() called on DESKTOP-QL22TIG
*** at Fri Mar 22 09:40:32 2019

   => Loading Basis Set <=

    Name: 3-21G
    Role: ORBITAL
    Keyword: BASIS
    atoms 1   entry C          line    68 file /home/wderricotte/src/psi4conda/share/psi4/basis/3-21g.gbs 
    atoms 2-3 entry O          line    90 file /home/wderricotte/src/psi4conda/share/psi4/basis/3-21g.gbs 
    atoms 4-5 entry H          line    21 file /home/wderricotte/src/psi4conda/share/psi4/basis/3-21g.gbs 


         ---------------------------------------------------------
                                   SCF
            by Justin Turney, Rob Parrish, Andy Simmonett
                             and Daniel Smith
                              UKS Reference
                        1 Threads,    500 MiB Core
         ---------------------------------------------------------

  ==> Geometry <==

    Molecular point group: c1
    Full point group: C1

    Geometry (in Angstrom), charge = 0, multiplicity = 1:

       Center              X                  Y                   Z               Mass       
    ------------   -----------------  -----------------  -----------------  -----------------
         C            0.129784220059    -0.143510255477     0.036169310292    12.000000000000
         O           -1.154576783693    -0.249347483617    -0.030169152237    15.994914619560
         O            1.080794459278     0.552841892869    -0.032650887544    15.994914619560
         H            0.341375655214    -1.653518907106     0.337786902363     1.007825032070
         H           -0.715715098318    -1.454405581870     0.228550935085     1.007825032070

  Running in c1 symmetry.

  Rotational constants: A =      3.12299  B =      0.36116  C =      0.32372 [cm^-1]
  Rotational constants: A =  93624.98414  B =  10827.30298  C =   9704.96778 [MHz]
  Nuclear repulsion =   68.637004057217709

  Charge       = 0
  Multiplicity = 1
  Electrons    = 24
  Nalpha       = 12
  Nbeta        = 12

  ==> Algorithm <==

  SCF Algorithm Type is DF.
  DIIS enabled.
  MOM disabled.
  Fractional occupation disabled.
  Guess Type is GWH.
  Energy threshold   = 1.00e-08
  Density threshold  = 1.00e-08
  Integral threshold = 0.00e+00

  ==> Primary Basis <==

  Basis Set: 3-21G
    Blend: 3-21G
    Number of shells: 19
    Number of basis function: 31
    Number of Cartesian functions: 31
    Spherical Harmonics?: false
    Max angular momentum: 1

  ==> DFT Potential <==

   => Composite Functional: B3LYP <= 

    B3LYP Hyb-GGA Exchange-Correlation Functional

    P. J. Stephens, F. J. Devlin, C. F. Chabalowski, and M. J. Frisch, J. Phys. Chem. 98, 11623 (1994)

    Deriv               =              1
    GGA                 =           TRUE
    Meta                =          FALSE

    Exchange Hybrid     =           TRUE
    MP2 Hybrid          =          FALSE

   => Exchange Functionals <=

    0.0800   Slater exchange
    0.7200         Becke 88

   => Exact (HF) Exchange <=

    0.2000               HF 

   => Correlation Functionals <=

    0.1900   Vosko, Wilk & Nusair (VWN5_RPA)
    0.8100   Lee, Yang & Parr

   => Molecular Quadrature <=

    Radial Scheme       =       TREUTLER
    Pruning Scheme      =           FLAT
    Nuclear Scheme      =       TREUTLER

    BS radius alpha     =              1
    Pruning alpha       =              1
    Radial Points       =             75
    Spherical Points    =            302
    Total Points        =         107712
    Total Blocks        =            871
    Max Points          =            256
    Max Functions       =             30

   => Loading Basis Set <=

    Name: (3-21G AUX)
    Role: JKFIT
    Keyword: DF_BASIS_SCF
    atoms 1   entry C          line   203 file /home/wderricotte/src/psi4conda/share/psi4/basis/def2-svp-jkfit.gbs 
    atoms 2-3 entry O          line   323 file /home/wderricotte/src/psi4conda/share/psi4/basis/def2-svp-jkfit.gbs 
    atoms 4-5 entry H          line    23 file /home/wderricotte/src/psi4conda/share/psi4/basis/def2-svp-jkfit.gbs 

  ==> Pre-Iterations <==

   -------------------------------------------------------
    Irrep   Nso     Nmo     Nalpha   Nbeta   Ndocc  Nsocc
   -------------------------------------------------------
     A         31      31       0       0       0       0
   -------------------------------------------------------
    Total      31      31      12      12      12       0
   -------------------------------------------------------

  ==> Integral Setup <==

  ==> DiskDFJK: Density-Fitted J/K Matrices <==

    J tasked:                  Yes
    K tasked:                  Yes
    wK tasked:                  No
    OpenMP threads:              1
    Integrals threads:           1
    Memory (MB):               375
    Algorithm:                Core
    Integral Cache:           NONE
    Schwarz Cutoff:          1E-12
    Fitting Condition:       1E-12

   => Auxiliary Basis Set <=

  Basis Set: (3-21G AUX)
    Blend: DEF2-SVP-JKFIT
    Number of shells: 87
    Number of basis function: 315
    Number of Cartesian functions: 315
    Spherical Harmonics?: false
    Max angular momentum: 4

  Minimum eigenvalue in the overlap matrix is 2.7700075474E-02.
  Using Symmetric Orthogonalization.

  SCF Guess: Generalized Wolfsberg-Helmholtz.

  ==> Iterations <==

                           Total Energy        Delta E     RMS |[F,P]|

   @DF-UKS iter   1:  -185.19985963286473   -1.85200e+02   1.05258e-01 
   @DF-UKS iter   2:  -183.66126915856694    1.53859e+00   9.30461e-02 DIIS
   @DF-UKS iter   3:  -187.81861762563324   -4.15735e+00   4.26630e-02 DIIS
   @DF-UKS iter   4:  -188.45160742308968   -6.32990e-01   1.64950e-02 DIIS
   @DF-UKS iter   5:  -188.51098383866020   -5.93764e-02   1.26753e-02 DIIS
   @DF-UKS iter   6:  -188.55980504537729   -4.88212e-02   5.06593e-03 DIIS
   @DF-UKS iter   7:  -188.57189251935881   -1.20875e-02   6.11819e-04 DIIS
   @DF-UKS iter   8:  -188.57204435962319   -1.51840e-04   8.44382e-05 DIIS
   @DF-UKS iter   9:  -188.57204793237378   -3.57275e-06   2.56821e-05 DIIS
   @DF-UKS iter  10:  -188.57204825876846   -3.26395e-07   2.45742e-06 DIIS
   @DF-UKS iter  11:  -188.57204826190326   -3.13480e-09   6.48487e-07 DIIS
   @DF-UKS iter  12:  -188.57204826209579   -1.92529e-10   1.34954e-07 DIIS
   @DF-UKS iter  13:  -188.57204826210466   -8.86757e-12   1.52494e-08 DIIS
   @DF-UKS iter  14:  -188.57204826210494   -2.84217e-13   1.20531e-09 DIIS

  ==> Post-Iterations <==

   @Spin Contamination Metric:   7.105427358E-15
   @S^2 Expected:                0.000000000E+00
   @S^2 Observed:                7.105427358E-15
   @S   Expected:                0.000000000E+00
   @S   Observed:                0.000000000E+00

    Orbital Energies [Eh]
    ---------------------

    Alpha Occupied:                                                       

       1A    -19.130573     2A    -19.106995     3A    -10.344810  
       4A     -1.167640     5A     -1.104935     6A     -0.600694  
       7A     -0.554690     8A     -0.500320     9A     -0.496647  
      10A     -0.399784    11A     -0.347424    12A     -0.295736  

    Alpha Virtual:                                                        

      13A     -0.065903    14A     -0.013016    15A      0.100953  
      16A      0.189868    17A      0.443468    18A      0.627035  
      19A      0.693788    20A      0.711868    21A      0.865689  
      22A      0.940956    23A      1.154607    24A      1.375818  
      25A      1.465283    26A      1.498771    27A      1.548209  
      28A      1.580780    29A      1.666601    30A      2.982960  
      31A      3.238930  

    Beta Occupied:                                                        

       1A    -19.130573     2A    -19.106995     3A    -10.344810  
       4A     -1.167640     5A     -1.104935     6A     -0.600694  
       7A     -0.554690     8A     -0.500320     9A     -0.496647  
      10A     -0.399784    11A     -0.347424    12A     -0.295736  

    Beta Virtual:                                                         

      13A     -0.065903    14A     -0.013016    15A      0.100953  
      16A      0.189868    17A      0.443468    18A      0.627035  
      19A      0.693788    20A      0.711868    21A      0.865689  
      22A      0.940956    23A      1.154607    24A      1.375818  
      25A      1.465283    26A      1.498771    27A      1.548209  
      28A      1.580780    29A      1.666601    30A      2.982960  
      31A      3.238930  

    Final Occupation by Irrep:
              A 
    DOCC [    12 ]
    SOCC [     0 ]

  Energy converged.

  @DF-UKS Final Energy:  -188.57204826210494

   => Energetics <=

    Nuclear Repulsion Energy =             68.6370040572177089
    One-Electron Energy =                -392.8902550051113849
    Two-Electron Energy =                 154.3751815414894679
    DFT Exchange-Correlation Energy =     -18.6939788557006992
    Empirical Dispersion Energy =           0.0000000000000000
    VV10 Nonlocal Energy =                  0.0000000000000000
    Total Energy =                       -188.5720482621048859


  UHF NO Occupations:
  HONO-2 :   10  A 2.0000000
  HONO-1 :   11  A 2.0000000
  HONO-0 :   12  A 2.0000000
  LUNO+0 :   13  A 0.0000000
  LUNO+1 :   14  A 0.0000000
  LUNO+2 :   15  A 0.0000000
  LUNO+3 :   16  A 0.0000000



Properties will be evaluated at   0.000000,   0.000000,   0.000000 [a0]

Properties computed using the SCF density matrix

  Nuclear Dipole Moment: [e a0]
     X:    -0.3513      Y:    -2.9121      Z:     0.5306

  Electronic Dipole Moment: [e a0]
     X:     0.2600      Y:     2.4802      Z:    -0.4546

  Dipole Moment: [e a0]
     X:    -0.0913      Y:    -0.4319      Z:     0.0761     Total:     0.4479

  Dipole Moment: [D]
     X:    -0.2321      Y:    -1.0977      Z:     0.1933     Total:     1.1385


*** tstop() called on DESKTOP-QL22TIG at Fri Mar 22 09:40:35 2019
Module time:
	user time   =       3.39 seconds =       0.06 minutes
	system time =       0.21 seconds =       0.00 minutes
	total time  =          3 seconds =       0.05 minutes
Total time:
	user time   =       3.39 seconds =       0.06 minutes
	system time =       0.21 seconds =       0.00 minutes
	total time  =          3 seconds =       0.05 minutes

*** tstart() called on DESKTOP-QL22TIG
*** at Fri Mar 22 09:40:35 2019


         ------------------------------------------------------------
                                   SCF GRAD                          
                          Rob Parrish, Justin Turney,                
                       Andy Simmonett, and Alex Sokolov              
         ------------------------------------------------------------

  ==> Geometry <==

    Molecular point group: c1
    Full point group: C1

    Geometry (in Angstrom), charge = 0, multiplicity = 1:

       Center              X                  Y                   Z               Mass       
    ------------   -----------------  -----------------  -----------------  -----------------
         C            0.129784220059    -0.143510255477     0.036169310292    12.000000000000
         O           -1.154576783693    -0.249347483617    -0.030169152237    15.994914619560
         O            1.080794459278     0.552841892869    -0.032650887544    15.994914619560
         H            0.341375655214    -1.653518907106     0.337786902363     1.007825032070
         H           -0.715715098318    -1.454405581870     0.228550935085     1.007825032070

  Nuclear repulsion =   68.637004057217709

  ==> Basis Set <==

  Basis Set: 3-21G
    Blend: 3-21G
    Number of shells: 19
    Number of basis function: 31
    Number of Cartesian functions: 31
    Spherical Harmonics?: false
    Max angular momentum: 1

  ==> DFJKGrad: Density-Fitted SCF Gradients <==

    Gradient:                    1
    J tasked:                  Yes
    K tasked:                  Yes
    wK tasked:                  No
    OpenMP threads:              1
    Integrals threads:           1
    Memory (MB):               375
    Schwarz Cutoff:          0E+00
    Fitting Condition:       1E-12

   => Auxiliary Basis Set <=

  Basis Set: (3-21G AUX)
    Blend: DEF2-SVP-JKFIT
    Number of shells: 87
    Number of basis function: 315
    Number of Cartesian functions: 315
    Spherical Harmonics?: false
    Max angular momentum: 4

  ==> DFT Potential <==

   => Composite Functional: B3LYP <= 

    B3LYP Hyb-GGA Exchange-Correlation Functional

    P. J. Stephens, F. J. Devlin, C. F. Chabalowski, and M. J. Frisch, J. Phys. Chem. 98, 11623 (1994)

    Deriv               =              1
    GGA                 =           TRUE
    Meta                =          FALSE

    Exchange Hybrid     =           TRUE
    MP2 Hybrid          =          FALSE

   => Exchange Functionals <=

    0.0800   Slater exchange
    0.7200         Becke 88

   => Exact (HF) Exchange <=

    0.2000               HF 

   => Correlation Functionals <=

    0.1900   Vosko, Wilk & Nusair (VWN5_RPA)
    0.8100   Lee, Yang & Parr

   => Molecular Quadrature <=

    Radial Scheme       =       TREUTLER
    Pruning Scheme      =           FLAT
    Nuclear Scheme      =       TREUTLER

    BS radius alpha     =              1
    Pruning alpha       =              1
    Radial Points       =             75
    Spherical Points    =            302
    Total Points        =         107712
    Total Blocks        =            871
    Max Points          =            256
    Max Functions       =             30


  -Total Gradient:
     Atom            X                  Y                   Z
    ------   -----------------  -----------------  -----------------
       1       -0.000132270836    -0.000034950436     0.000024249143
       2        0.000122247587     0.000013919853     0.000000206817
       3        0.000019319435    -0.000000072857    -0.000012719007
       4       -0.000027087069     0.000040260496    -0.000009155135
       5        0.000020971492     0.000011456981    -0.000008138284


*** tstop() called on DESKTOP-QL22TIG at Fri Mar 22 09:40:36 2019
Module time:
	user time   =       0.55 seconds =       0.01 minutes
	system time =       0.06 seconds =       0.00 minutes
	total time  =          1 seconds =       0.02 minutes
Total time:
	user time   =       3.94 seconds =       0.07 minutes
	system time =       0.27 seconds =       0.00 minutes
	total time  =          4 seconds =       0.07 minutes

  Based on options and gradient (rms=5.04E-05), recommend projecting translations and projecting rotations.
hessian() will perform frequency computation by finite difference of analytic gradients.

-------------------------------------------------------------

  Using finite-differences of gradients to determine vibrational frequencies and 
  normal modes.  Resulting frequencies are only valid at stationary points.
	Generating geometries for use with 3-point formula.
	Displacement size will be 5.00e-03.
	Number of atoms is 5.
	Number of irreps is 1.
	Number of SALCS is 9.
	Translations projected? 1. Rotations projected? 1.
	Index of salcs per irrep:
	 1 :  0  1  2  3  4  5  6  7  8 
	Number of SALC's per irrep:
		 Irrep 1: 9
	Number of geometries (including reference) is 19.
	Number of displacements per irrep:
	  Irrep 1: 18

  //>>>>>>>>>>>>>>>>>>>>>>>>>>>>>>>>>>>//
  //    Loading displacement 1 of 19   //
  //<<<<<<<<<<<<<<<<<<<<<<<<<<<<<<<<<<<//
gradient() will perform analytic gradient computation.

*** tstart() called on DESKTOP-QL22TIG
*** at Fri Mar 22 09:40:36 2019

   => Loading Basis Set <=

    Name: 3-21G
    Role: ORBITAL
    Keyword: BASIS
    atoms 1   entry C          line    68 file /home/wderricotte/src/psi4conda/share/psi4/basis/3-21g.gbs 
    atoms 2-3 entry O          line    90 file /home/wderricotte/src/psi4conda/share/psi4/basis/3-21g.gbs 
    atoms 4-5 entry H          line    21 file /home/wderricotte/src/psi4conda/share/psi4/basis/3-21g.gbs 


         ---------------------------------------------------------
                                   SCF
            by Justin Turney, Rob Parrish, Andy Simmonett
                             and Daniel Smith
                              UKS Reference
                        1 Threads,    500 MiB Core
         ---------------------------------------------------------

  ==> Geometry <==

    Molecular point group: c1
    Full point group: C1

    Geometry (in Angstrom), charge = 0, multiplicity = 1:

       Center              X                  Y                   Z               Mass       
    ------------   -----------------  -----------------  -----------------  -----------------
         C            0.129129925191    -0.143507185916     0.036164380718    12.000000000000
         O           -1.154337386566    -0.249380667300    -0.030156051808    15.994914619560
         O            1.081010339300     0.552874183115    -0.032656713448    15.994914619560
         H            0.341661925510    -1.653515723184     0.337748220308     1.007825032070
         H           -0.715436370460    -1.454431135041     0.228532860743     1.007825032070

  Running in c1 symmetry.

  Rotational constants: A =      3.12384  B =      0.36117  C =      0.32374 [cm^-1]
  Rotational constants: A =  93650.39242  B =  10827.60585  C =   9705.48413 [MHz]
  Nuclear repulsion =   68.637927388017971

  Charge       = 0
  Multiplicity = 1
  Electrons    = 24
  Nalpha       = 12
  Nbeta        = 12

  ==> Algorithm <==

  SCF Algorithm Type is DF.
  DIIS enabled.
  MOM disabled.
  Fractional occupation disabled.
  Guess Type is GWH.
  Energy threshold   = 1.00e-08
  Density threshold  = 1.00e-08
  Integral threshold = 0.00e+00

  ==> Primary Basis <==

  Basis Set: 3-21G
    Blend: 3-21G
    Number of shells: 19
    Number of basis function: 31
    Number of Cartesian functions: 31
    Spherical Harmonics?: false
    Max angular momentum: 1

  ==> DFT Potential <==

   => Composite Functional: B3LYP <= 

    B3LYP Hyb-GGA Exchange-Correlation Functional

    P. J. Stephens, F. J. Devlin, C. F. Chabalowski, and M. J. Frisch, J. Phys. Chem. 98, 11623 (1994)

    Deriv               =              1
    GGA                 =           TRUE
    Meta                =          FALSE

    Exchange Hybrid     =           TRUE
    MP2 Hybrid          =          FALSE

   => Exchange Functionals <=

    0.0800   Slater exchange
    0.7200         Becke 88

   => Exact (HF) Exchange <=

    0.2000               HF 

   => Correlation Functionals <=

    0.1900   Vosko, Wilk & Nusair (VWN5_RPA)
    0.8100   Lee, Yang & Parr

   => Molecular Quadrature <=

    Radial Scheme       =       TREUTLER
    Pruning Scheme      =           FLAT
    Nuclear Scheme      =       TREUTLER

    BS radius alpha     =              1
    Pruning alpha       =              1
    Radial Points       =             75
    Spherical Points    =            302
    Total Points        =         107712
    Total Blocks        =            873
    Max Points          =            255
    Max Functions       =             30

   => Loading Basis Set <=

    Name: (3-21G AUX)
    Role: JKFIT
    Keyword: DF_BASIS_SCF
    atoms 1   entry C          line   203 file /home/wderricotte/src/psi4conda/share/psi4/basis/def2-svp-jkfit.gbs 
    atoms 2-3 entry O          line   323 file /home/wderricotte/src/psi4conda/share/psi4/basis/def2-svp-jkfit.gbs 
    atoms 4-5 entry H          line    23 file /home/wderricotte/src/psi4conda/share/psi4/basis/def2-svp-jkfit.gbs 

  ==> Pre-Iterations <==

   -------------------------------------------------------
    Irrep   Nso     Nmo     Nalpha   Nbeta   Ndocc  Nsocc
   -------------------------------------------------------
     A         31      31       0       0       0       0
   -------------------------------------------------------
    Total      31      31      12      12      12       0
   -------------------------------------------------------

  ==> Integral Setup <==

  ==> DiskDFJK: Density-Fitted J/K Matrices <==

    J tasked:                  Yes
    K tasked:                  Yes
    wK tasked:                  No
    OpenMP threads:              1
    Integrals threads:           1
    Memory (MB):               375
    Algorithm:                Core
    Integral Cache:           NONE
    Schwarz Cutoff:          1E-12
    Fitting Condition:       1E-12

   => Auxiliary Basis Set <=

  Basis Set: (3-21G AUX)
    Blend: DEF2-SVP-JKFIT
    Number of shells: 87
    Number of basis function: 315
    Number of Cartesian functions: 315
    Spherical Harmonics?: false
    Max angular momentum: 4

  Minimum eigenvalue in the overlap matrix is 2.7682076746E-02.
  Using Symmetric Orthogonalization.

  SCF Guess: Generalized Wolfsberg-Helmholtz.

  ==> Iterations <==

                           Total Energy        Delta E     RMS |[F,P]|

   @DF-UKS iter   1:  -185.19995326686956   -1.85200e+02   1.05254e-01 
   @DF-UKS iter   2:  -183.65825157597530    1.54170e+00   9.30588e-02 DIIS
   @DF-UKS iter   3:  -187.81772477226704   -4.15947e+00   4.26834e-02 DIIS
   @DF-UKS iter   4:  -188.45099215220668   -6.33267e-01   1.65640e-02 DIIS
   @DF-UKS iter   5:  -188.51051808954657   -5.95259e-02   1.27244e-02 DIIS
   @DF-UKS iter   6:  -188.55986661331795   -4.93485e-02   5.04906e-03 DIIS
   @DF-UKS iter   7:  -188.57188998920319   -1.20234e-02   6.13734e-04 DIIS
   @DF-UKS iter   8:  -188.57204278727460   -1.52798e-04   8.44844e-05 DIIS
   @DF-UKS iter   9:  -188.57204636619048   -3.57892e-06   2.57689e-05 DIIS
   @DF-UKS iter  10:  -188.57204669474228   -3.28552e-07   2.46210e-06 DIIS
   @DF-UKS iter  11:  -188.57204669788555   -3.14327e-09   6.53943e-07 DIIS
   @DF-UKS iter  12:  -188.57204669808053   -1.94973e-10   1.36134e-07 DIIS
   @DF-UKS iter  13:  -188.57204669808991   -9.37916e-12   1.54701e-08 DIIS
   @DF-UKS iter  14:  -188.57204669808996   -5.68434e-14   1.21367e-09 DIIS

  ==> Post-Iterations <==

   @Spin Contamination Metric:  -3.907985047E-14
   @S^2 Expected:                0.000000000E+00
   @S^2 Observed:               -3.907985047E-14
   @S   Expected:                0.000000000E+00
   @S   Observed:                0.000000000E+00

    Orbital Energies [Eh]
    ---------------------

    Alpha Occupied:                                                       

       1A    -19.130454     2A    -19.107150     3A    -10.344886  
       4A     -1.167324     5A     -1.105317     6A     -0.600810  
       7A     -0.554756     8A     -0.500274     9A     -0.496627  
      10A     -0.399589    11A     -0.347503    12A     -0.295821  

    Alpha Virtual:                                                        

      13A     -0.065934    14A     -0.013055    15A      0.100878  
      16A      0.189872    17A      0.443869    18A      0.627016  
      19A      0.693635    20A      0.711810    21A      0.865409  
      22A      0.940823    23A      1.154209    24A      1.375789  
      25A      1.465530    26A      1.498882    27A      1.548244  
      28A      1.580430    29A      1.666527    30A      2.983194  
      31A      3.239250  

    Beta Occupied:                                                        

       1A    -19.130454     2A    -19.107150     3A    -10.344886  
       4A     -1.167324     5A     -1.105317     6A     -0.600810  
       7A     -0.554756     8A     -0.500274     9A     -0.496627  
      10A     -0.399589    11A     -0.347503    12A     -0.295821  

    Beta Virtual:                                                         

      13A     -0.065934    14A     -0.013055    15A      0.100878  
      16A      0.189872    17A      0.443869    18A      0.627016  
      19A      0.693635    20A      0.711810    21A      0.865409  
      22A      0.940823    23A      1.154209    24A      1.375789  
      25A      1.465530    26A      1.498882    27A      1.548244  
      28A      1.580430    29A      1.666527    30A      2.983194  
      31A      3.239250  

    Final Occupation by Irrep:
              A 
    DOCC [    12 ]
    SOCC [     0 ]

  Energy converged.

  @DF-UKS Final Energy:  -188.57204669808996

   => Energetics <=

    Nuclear Repulsion Energy =             68.6379273880179710
    One-Electron Energy =                -392.8916091297929825
    Two-Electron Energy =                 154.3755598409635468
    DFT Exchange-Correlation Energy =     -18.6939247972784912
    Empirical Dispersion Energy =           0.0000000000000000
    VV10 Nonlocal Energy =                  0.0000000000000000
    Total Energy =                       -188.5720466980899914


  UHF NO Occupations:
  HONO-2 :   10  A 2.0000000
  HONO-1 :   11  A 2.0000000
  HONO-0 :   12  A 2.0000000
  LUNO+0 :   13  A 0.0000000
  LUNO+1 :   14  A 0.0000000
  LUNO+2 :   15  A 0.0000000
  LUNO+3 :   16  A 0.0000000



Properties will be evaluated at   0.000000,   0.000000,   0.000000 [a0]

Properties computed using the SCF density matrix

  Nuclear Dipole Moment: [e a0]
     X:    -0.3508      Y:    -2.9121      Z:     0.5306

  Electronic Dipole Moment: [e a0]
     X:     0.2575      Y:     2.4800      Z:    -0.4546

  Dipole Moment: [e a0]
     X:    -0.0932      Y:    -0.4321      Z:     0.0760     Total:     0.4485

  Dipole Moment: [D]
     X:    -0.2370      Y:    -1.0983      Z:     0.1932     Total:     1.1401


*** tstop() called on DESKTOP-QL22TIG at Fri Mar 22 09:40:40 2019
Module time:
	user time   =       3.44 seconds =       0.06 minutes
	system time =       0.16 seconds =       0.00 minutes
	total time  =          4 seconds =       0.07 minutes
Total time:
	user time   =       7.39 seconds =       0.12 minutes
	system time =       0.43 seconds =       0.01 minutes
	total time  =          8 seconds =       0.13 minutes

*** tstart() called on DESKTOP-QL22TIG
*** at Fri Mar 22 09:40:40 2019


         ------------------------------------------------------------
                                   SCF GRAD                          
                          Rob Parrish, Justin Turney,                
                       Andy Simmonett, and Alex Sokolov              
         ------------------------------------------------------------

  ==> Geometry <==

    Molecular point group: c1
    Full point group: C1

    Geometry (in Angstrom), charge = 0, multiplicity = 1:

       Center              X                  Y                   Z               Mass       
    ------------   -----------------  -----------------  -----------------  -----------------
         C            0.129129925191    -0.143507185916     0.036164380718    12.000000000000
         O           -1.154337386566    -0.249380667300    -0.030156051808    15.994914619560
         O            1.081010339300     0.552874183115    -0.032656713448    15.994914619560
         H            0.341661925510    -1.653515723184     0.337748220308     1.007825032070
         H           -0.715436370460    -1.454431135041     0.228532860743     1.007825032070

  Nuclear repulsion =   68.637927388017971

  ==> Basis Set <==

  Basis Set: 3-21G
    Blend: 3-21G
    Number of shells: 19
    Number of basis function: 31
    Number of Cartesian functions: 31
    Spherical Harmonics?: false
    Max angular momentum: 1

  ==> DFJKGrad: Density-Fitted SCF Gradients <==

    Gradient:                    1
    J tasked:                  Yes
    K tasked:                  Yes
    wK tasked:                  No
    OpenMP threads:              1
    Integrals threads:           1
    Memory (MB):               375
    Schwarz Cutoff:          0E+00
    Fitting Condition:       1E-12

   => Auxiliary Basis Set <=

  Basis Set: (3-21G AUX)
    Blend: DEF2-SVP-JKFIT
    Number of shells: 87
    Number of basis function: 315
    Number of Cartesian functions: 315
    Spherical Harmonics?: false
    Max angular momentum: 4

  ==> DFT Potential <==

   => Composite Functional: B3LYP <= 

    B3LYP Hyb-GGA Exchange-Correlation Functional

    P. J. Stephens, F. J. Devlin, C. F. Chabalowski, and M. J. Frisch, J. Phys. Chem. 98, 11623 (1994)

    Deriv               =              1
    GGA                 =           TRUE
    Meta                =          FALSE

    Exchange Hybrid     =           TRUE
    MP2 Hybrid          =          FALSE

   => Exchange Functionals <=

    0.0800   Slater exchange
    0.7200         Becke 88

   => Exact (HF) Exchange <=

    0.2000               HF 

   => Correlation Functionals <=

    0.1900   Vosko, Wilk & Nusair (VWN5_RPA)
    0.8100   Lee, Yang & Parr

   => Molecular Quadrature <=

    Radial Scheme       =       TREUTLER
    Pruning Scheme      =           FLAT
    Nuclear Scheme      =       TREUTLER

    BS radius alpha     =              1
    Pruning alpha       =              1
    Radial Points       =             75
    Spherical Points    =            302
    Total Points        =         107712
    Total Blocks        =            873
    Max Points          =            255
    Max Functions       =             30


  -Total Gradient:
     Atom            X                  Y                   Z
    ------   -----------------  -----------------  -----------------
       1       -0.001775954529    -0.000970538626     0.000105562756
       2        0.000822973155    -0.000155132929     0.000073618477
       3        0.001054323518     0.000757765108    -0.000093323808
       4        0.000101695624     0.000131274994    -0.000021475930
       5       -0.000200030395     0.000267072466    -0.000069894952


*** tstop() called on DESKTOP-QL22TIG at Fri Mar 22 09:40:40 2019
Module time:
	user time   =       0.61 seconds =       0.01 minutes
	system time =       0.04 seconds =       0.00 minutes
	total time  =          0 seconds =       0.00 minutes
Total time:
	user time   =       8.00 seconds =       0.13 minutes
	system time =       0.47 seconds =       0.01 minutes
	total time  =          8 seconds =       0.13 minutes

  //>>>>>>>>>>>>>>>>>>>>>>>>>>>>>>>>>>>//
  //    Loading displacement 2 of 19   //
  //<<<<<<<<<<<<<<<<<<<<<<<<<<<<<<<<<<<//
gradient() will perform analytic gradient computation.

*** tstart() called on DESKTOP-QL22TIG
*** at Fri Mar 22 09:40:40 2019

   => Loading Basis Set <=

    Name: 3-21G
    Role: ORBITAL
    Keyword: BASIS
    atoms 1   entry C          line    68 file /home/wderricotte/src/psi4conda/share/psi4/basis/3-21g.gbs 
    atoms 2-3 entry O          line    90 file /home/wderricotte/src/psi4conda/share/psi4/basis/3-21g.gbs 
    atoms 4-5 entry H          line    21 file /home/wderricotte/src/psi4conda/share/psi4/basis/3-21g.gbs 


         ---------------------------------------------------------
                                   SCF
            by Justin Turney, Rob Parrish, Andy Simmonett
                             and Daniel Smith
                              UKS Reference
                        1 Threads,    500 MiB Core
         ---------------------------------------------------------

  ==> Geometry <==

    Molecular point group: c1
    Full point group: C1

    Geometry (in Angstrom), charge = 0, multiplicity = 1:

       Center              X                  Y                   Z               Mass       
    ------------   -----------------  -----------------  -----------------  -----------------
         C            0.130438514926    -0.143513325038     0.036174239866    12.000000000000
         O           -1.154816180820    -0.249314299934    -0.030182252666    15.994914619560
         O            1.080578579256     0.552809602622    -0.032645061640    15.994914619560
         H            0.341089384918    -1.653522091029     0.337825584418     1.007825032070
         H           -0.715993826176    -1.454380028700     0.228569009427     1.007825032070

  Running in c1 symmetry.

  Rotational constants: A =      3.12215  B =      0.36115  C =      0.32371 [cm^-1]
  Rotational constants: A =  93599.56273  B =  10826.99724  C =   9704.44888 [MHz]
  Nuclear repulsion =   68.636110489792870

  Charge       = 0
  Multiplicity = 1
  Electrons    = 24
  Nalpha       = 12
  Nbeta        = 12

  ==> Algorithm <==

  SCF Algorithm Type is DF.
  DIIS enabled.
  MOM disabled.
  Fractional occupation disabled.
  Guess Type is GWH.
  Energy threshold   = 1.00e-08
  Density threshold  = 1.00e-08
  Integral threshold = 0.00e+00

  ==> Primary Basis <==

  Basis Set: 3-21G
    Blend: 3-21G
    Number of shells: 19
    Number of basis function: 31
    Number of Cartesian functions: 31
    Spherical Harmonics?: false
    Max angular momentum: 1

  ==> DFT Potential <==

   => Composite Functional: B3LYP <= 

    B3LYP Hyb-GGA Exchange-Correlation Functional

    P. J. Stephens, F. J. Devlin, C. F. Chabalowski, and M. J. Frisch, J. Phys. Chem. 98, 11623 (1994)

    Deriv               =              1
    GGA                 =           TRUE
    Meta                =          FALSE

    Exchange Hybrid     =           TRUE
    MP2 Hybrid          =          FALSE

   => Exchange Functionals <=

    0.0800   Slater exchange
    0.7200         Becke 88

   => Exact (HF) Exchange <=

    0.2000               HF 

   => Correlation Functionals <=

    0.1900   Vosko, Wilk & Nusair (VWN5_RPA)
    0.8100   Lee, Yang & Parr

   => Molecular Quadrature <=

    Radial Scheme       =       TREUTLER
    Pruning Scheme      =           FLAT
    Nuclear Scheme      =       TREUTLER

    BS radius alpha     =              1
    Pruning alpha       =              1
    Radial Points       =             75
    Spherical Points    =            302
    Total Points        =         107712
    Total Blocks        =            873
    Max Points          =            256
    Max Functions       =             30

   => Loading Basis Set <=

    Name: (3-21G AUX)
    Role: JKFIT
    Keyword: DF_BASIS_SCF
    atoms 1   entry C          line   203 file /home/wderricotte/src/psi4conda/share/psi4/basis/def2-svp-jkfit.gbs 
    atoms 2-3 entry O          line   323 file /home/wderricotte/src/psi4conda/share/psi4/basis/def2-svp-jkfit.gbs 
    atoms 4-5 entry H          line    23 file /home/wderricotte/src/psi4conda/share/psi4/basis/def2-svp-jkfit.gbs 

  ==> Pre-Iterations <==

   -------------------------------------------------------
    Irrep   Nso     Nmo     Nalpha   Nbeta   Ndocc  Nsocc
   -------------------------------------------------------
     A         31      31       0       0       0       0
   -------------------------------------------------------
    Total      31      31      12      12      12       0
   -------------------------------------------------------

  ==> Integral Setup <==

  ==> DiskDFJK: Density-Fitted J/K Matrices <==

    J tasked:                  Yes
    K tasked:                  Yes
    wK tasked:                  No
    OpenMP threads:              1
    Integrals threads:           1
    Memory (MB):               375
    Algorithm:                Core
    Integral Cache:           NONE
    Schwarz Cutoff:          1E-12
    Fitting Condition:       1E-12

   => Auxiliary Basis Set <=

  Basis Set: (3-21G AUX)
    Blend: DEF2-SVP-JKFIT
    Number of shells: 87
    Number of basis function: 315
    Number of Cartesian functions: 315
    Spherical Harmonics?: false
    Max angular momentum: 4

  Minimum eigenvalue in the overlap matrix is 2.7717917834E-02.
  Using Symmetric Orthogonalization.

  SCF Guess: Generalized Wolfsberg-Helmholtz.

  ==> Iterations <==

                           Total Energy        Delta E     RMS |[F,P]|

   @DF-UKS iter   1:  -185.19976133744723   -1.85200e+02   1.05262e-01 
   @DF-UKS iter   2:  -183.66427454130684    1.53549e+00   9.30333e-02 DIIS
   @DF-UKS iter   3:  -187.81949674866934   -4.15522e+00   4.26429e-02 DIIS
   @DF-UKS iter   4:  -188.45221775835330   -6.32721e-01   1.64258e-02 DIIS
   @DF-UKS iter   5:  -188.51145538909577   -5.92376e-02   1.26250e-02 DIIS
   @DF-UKS iter   6:  -188.55974004764619   -4.82847e-02   5.08299e-03 DIIS
   @DF-UKS iter   7:  -188.57189228254128   -1.21522e-02   6.09894e-04 DIIS
   @DF-UKS iter   8:  -188.57204316331729   -1.50881e-04   8.43925e-05 DIIS
   @DF-UKS iter   9:  -188.57204673002184   -3.56670e-06   2.55944e-05 DIIS
   @DF-UKS iter  10:  -188.57204705424317   -3.24221e-07   2.45293e-06 DIIS
   @DF-UKS iter  11:  -188.57204705737007   -3.12690e-09   6.43043e-07 DIIS
   @DF-UKS iter  12:  -188.57204705755936   -1.89289e-10   1.33755e-07 DIIS
   @DF-UKS iter  13:  -188.57204705756823   -8.86757e-12   1.50287e-08 DIIS
   @DF-UKS iter  14:  -188.57204705756840   -1.70530e-13   1.19717e-09 DIIS

  ==> Post-Iterations <==

   @Spin Contamination Metric:   3.197442311E-14
   @S^2 Expected:                0.000000000E+00
   @S^2 Observed:                3.197442311E-14
   @S   Expected:                0.000000000E+00
   @S   Observed:                0.000000000E+00

    Orbital Energies [Eh]
    ---------------------

    Alpha Occupied:                                                       

       1A    -19.130691     2A    -19.106840     3A    -10.344734  
       4A     -1.167963     5A     -1.104546     6A     -0.600578  
       7A     -0.554625     8A     -0.500368     9A     -0.496667  
      10A     -0.399979    11A     -0.347342    12A     -0.295651  

    Alpha Virtual:                                                        

      13A     -0.065872    14A     -0.012976    15A      0.101028  
      16A      0.189863    17A      0.443066    18A      0.627053  
      19A      0.693932    20A      0.711938    21A      0.865970  
      22A      0.941092    23A      1.155009    24A      1.375846  
      25A      1.465032    26A      1.498662    27A      1.548173  
      28A      1.581129    29A      1.666675    30A      2.982723  
      31A      3.238612  

    Beta Occupied:                                                        

       1A    -19.130691     2A    -19.106840     3A    -10.344734  
       4A     -1.167963     5A     -1.104546     6A     -0.600578  
       7A     -0.554625     8A     -0.500368     9A     -0.496667  
      10A     -0.399979    11A     -0.347342    12A     -0.295651  

    Beta Virtual:                                                         

      13A     -0.065872    14A     -0.012976    15A      0.101028  
      16A      0.189863    17A      0.443066    18A      0.627053  
      19A      0.693932    20A      0.711938    21A      0.865970  
      22A      0.941092    23A      1.155009    24A      1.375846  
      25A      1.465032    26A      1.498662    27A      1.548173  
      28A      1.581129    29A      1.666675    30A      2.982723  
      31A      3.238612  

    Final Occupation by Irrep:
              A 
    DOCC [    12 ]
    SOCC [     0 ]

  Energy converged.

  @DF-UKS Final Energy:  -188.57204705756840

   => Energetics <=

    Nuclear Repulsion Energy =             68.6361104897928698
    One-Electron Energy =                -392.8889507456049159
    Two-Electron Energy =                 154.3748279374327694
    DFT Exchange-Correlation Energy =     -18.6940347391891137
    Empirical Dispersion Energy =           0.0000000000000000
    VV10 Nonlocal Energy =                  0.0000000000000000
    Total Energy =                       -188.5720470575683692


  UHF NO Occupations:
  HONO-2 :   10  A 2.0000000
  HONO-1 :   11  A 2.0000000
  HONO-0 :   12  A 2.0000000
  LUNO+0 :   13  A 0.0000000
  LUNO+1 :   14  A 0.0000000
  LUNO+2 :   15  A 0.0000000
  LUNO+3 :   16  A 0.0000000



Properties will be evaluated at   0.000000,   0.000000,   0.000000 [a0]

Properties computed using the SCF density matrix

  Nuclear Dipole Moment: [e a0]
     X:    -0.3518      Y:    -2.9121      Z:     0.5307

  Electronic Dipole Moment: [e a0]
     X:     0.2624      Y:     2.4804      Z:    -0.4546

  Dipole Moment: [e a0]
     X:    -0.0894      Y:    -0.4317      Z:     0.0761     Total:     0.4473

  Dipole Moment: [D]
     X:    -0.2272      Y:    -1.0972      Z:     0.1935     Total:     1.1370


*** tstop() called on DESKTOP-QL22TIG at Fri Mar 22 09:40:44 2019
Module time:
	user time   =       3.11 seconds =       0.05 minutes
	system time =       0.17 seconds =       0.00 minutes
	total time  =          4 seconds =       0.07 minutes
Total time:
	user time   =      11.12 seconds =       0.19 minutes
	system time =       0.64 seconds =       0.01 minutes
	total time  =         12 seconds =       0.20 minutes

*** tstart() called on DESKTOP-QL22TIG
*** at Fri Mar 22 09:40:44 2019


         ------------------------------------------------------------
                                   SCF GRAD                          
                          Rob Parrish, Justin Turney,                
                       Andy Simmonett, and Alex Sokolov              
         ------------------------------------------------------------

  ==> Geometry <==

    Molecular point group: c1
    Full point group: C1

    Geometry (in Angstrom), charge = 0, multiplicity = 1:

       Center              X                  Y                   Z               Mass       
    ------------   -----------------  -----------------  -----------------  -----------------
         C            0.130438514926    -0.143513325038     0.036174239866    12.000000000000
         O           -1.154816180820    -0.249314299934    -0.030182252666    15.994914619560
         O            1.080578579256     0.552809602622    -0.032645061640    15.994914619560
         H            0.341089384918    -1.653522091029     0.337825584418     1.007825032070
         H           -0.715993826176    -1.454380028700     0.228569009427     1.007825032070

  Nuclear repulsion =   68.636110489792870

  ==> Basis Set <==

  Basis Set: 3-21G
    Blend: 3-21G
    Number of shells: 19
    Number of basis function: 31
    Number of Cartesian functions: 31
    Spherical Harmonics?: false
    Max angular momentum: 1

  ==> DFJKGrad: Density-Fitted SCF Gradients <==

    Gradient:                    1
    J tasked:                  Yes
    K tasked:                  Yes
    wK tasked:                  No
    OpenMP threads:              1
    Integrals threads:           1
    Memory (MB):               375
    Schwarz Cutoff:          0E+00
    Fitting Condition:       1E-12

   => Auxiliary Basis Set <=

  Basis Set: (3-21G AUX)
    Blend: DEF2-SVP-JKFIT
    Number of shells: 87
    Number of basis function: 315
    Number of Cartesian functions: 315
    Spherical Harmonics?: false
    Max angular momentum: 4

  ==> DFT Potential <==

   => Composite Functional: B3LYP <= 

    B3LYP Hyb-GGA Exchange-Correlation Functional

    P. J. Stephens, F. J. Devlin, C. F. Chabalowski, and M. J. Frisch, J. Phys. Chem. 98, 11623 (1994)

    Deriv               =              1
    GGA                 =           TRUE
    Meta                =          FALSE

    Exchange Hybrid     =           TRUE
    MP2 Hybrid          =          FALSE

   => Exchange Functionals <=

    0.0800   Slater exchange
    0.7200         Becke 88

   => Exact (HF) Exchange <=

    0.2000               HF 

   => Correlation Functionals <=

    0.1900   Vosko, Wilk & Nusair (VWN5_RPA)
    0.8100   Lee, Yang & Parr

   => Molecular Quadrature <=

    Radial Scheme       =       TREUTLER
    Pruning Scheme      =           FLAT
    Nuclear Scheme      =       TREUTLER

    BS radius alpha     =              1
    Pruning alpha       =              1
    Radial Points       =             75
    Spherical Points    =            302
    Total Points        =         107712
    Total Blocks        =            873
    Max Points          =            256
    Max Functions       =             30


  -Total Gradient:
     Atom            X                  Y                   Z
    ------   -----------------  -----------------  -----------------
       1        0.001511903096     0.000903992256    -0.000057621083
       2       -0.000574042122     0.000183072724    -0.000072900608
       3       -0.001020263401    -0.000762295579     0.000068304214
       4       -0.000155723418    -0.000050581031     0.000003158652
       5        0.000241478532    -0.000243406780     0.000053459868


*** tstop() called on DESKTOP-QL22TIG at Fri Mar 22 09:40:44 2019
Module time:
	user time   =       0.46 seconds =       0.01 minutes
	system time =       0.08 seconds =       0.00 minutes
	total time  =          0 seconds =       0.00 minutes
Total time:
	user time   =      11.58 seconds =       0.19 minutes
	system time =       0.72 seconds =       0.01 minutes
	total time  =         12 seconds =       0.20 minutes

  //>>>>>>>>>>>>>>>>>>>>>>>>>>>>>>>>>>>//
  //    Loading displacement 3 of 19   //
  //<<<<<<<<<<<<<<<<<<<<<<<<<<<<<<<<<<<//
gradient() will perform analytic gradient computation.

*** tstart() called on DESKTOP-QL22TIG
*** at Fri Mar 22 09:40:44 2019

   => Loading Basis Set <=

    Name: 3-21G
    Role: ORBITAL
    Keyword: BASIS
    atoms 1   entry C          line    68 file /home/wderricotte/src/psi4conda/share/psi4/basis/3-21g.gbs 
    atoms 2-3 entry O          line    90 file /home/wderricotte/src/psi4conda/share/psi4/basis/3-21g.gbs 
    atoms 4-5 entry H          line    21 file /home/wderricotte/src/psi4conda/share/psi4/basis/3-21g.gbs 


         ---------------------------------------------------------
                                   SCF
            by Justin Turney, Rob Parrish, Andy Simmonett
                             and Daniel Smith
                              UKS Reference
                        1 Threads,    500 MiB Core
         ---------------------------------------------------------

  ==> Geometry <==

    Molecular point group: c1
    Full point group: C1

    Geometry (in Angstrom), charge = 0, multiplicity = 1:

       Center              X                  Y                   Z               Mass       
    ------------   -----------------  -----------------  -----------------  -----------------
         C            0.129784220059    -0.144163990086     0.036181588442    12.000000000000
         O           -1.154568143689    -0.249148344850    -0.030180033832    15.994914619560
         O            1.080781139829     0.553102225072    -0.032661287164    15.994914619560
         H            0.341414245866    -1.653254996294     0.337901433320     1.007825032070
         H           -0.715679422785    -1.454177724418     0.228627958632     1.007825032070

  Running in c1 symmetry.

  Rotational constants: A =      3.12091  B =      0.36116  C =      0.32370 [cm^-1]
  Rotational constants: A =  93562.51355  B =  10827.42749  C =   9704.39606 [MHz]
  Nuclear repulsion =   68.630627874765707

  Charge       = 0
  Multiplicity = 1
  Electrons    = 24
  Nalpha       = 12
  Nbeta        = 12

  ==> Algorithm <==

  SCF Algorithm Type is DF.
  DIIS enabled.
  MOM disabled.
  Fractional occupation disabled.
  Guess Type is GWH.
  Energy threshold   = 1.00e-08
  Density threshold  = 1.00e-08
  Integral threshold = 0.00e+00

  ==> Primary Basis <==

  Basis Set: 3-21G
    Blend: 3-21G
    Number of shells: 19
    Number of basis function: 31
    Number of Cartesian functions: 31
    Spherical Harmonics?: false
    Max angular momentum: 1

  ==> DFT Potential <==

   => Composite Functional: B3LYP <= 

    B3LYP Hyb-GGA Exchange-Correlation Functional

    P. J. Stephens, F. J. Devlin, C. F. Chabalowski, and M. J. Frisch, J. Phys. Chem. 98, 11623 (1994)

    Deriv               =              1
    GGA                 =           TRUE
    Meta                =          FALSE

    Exchange Hybrid     =           TRUE
    MP2 Hybrid          =          FALSE

   => Exchange Functionals <=

    0.0800   Slater exchange
    0.7200         Becke 88

   => Exact (HF) Exchange <=

    0.2000               HF 

   => Correlation Functionals <=

    0.1900   Vosko, Wilk & Nusair (VWN5_RPA)
    0.8100   Lee, Yang & Parr

   => Molecular Quadrature <=

    Radial Scheme       =       TREUTLER
    Pruning Scheme      =           FLAT
    Nuclear Scheme      =       TREUTLER

    BS radius alpha     =              1
    Pruning alpha       =              1
    Radial Points       =             75
    Spherical Points    =            302
    Total Points        =         107712
    Total Blocks        =            869
    Max Points          =            256
    Max Functions       =             30

   => Loading Basis Set <=

    Name: (3-21G AUX)
    Role: JKFIT
    Keyword: DF_BASIS_SCF
    atoms 1   entry C          line   203 file /home/wderricotte/src/psi4conda/share/psi4/basis/def2-svp-jkfit.gbs 
    atoms 2-3 entry O          line   323 file /home/wderricotte/src/psi4conda/share/psi4/basis/def2-svp-jkfit.gbs 
    atoms 4-5 entry H          line    23 file /home/wderricotte/src/psi4conda/share/psi4/basis/def2-svp-jkfit.gbs 

  ==> Pre-Iterations <==

   -------------------------------------------------------
    Irrep   Nso     Nmo     Nalpha   Nbeta   Ndocc  Nsocc
   -------------------------------------------------------
     A         31      31       0       0       0       0
   -------------------------------------------------------
    Total      31      31      12      12      12       0
   -------------------------------------------------------

  ==> Integral Setup <==

  ==> DiskDFJK: Density-Fitted J/K Matrices <==

    J tasked:                  Yes
    K tasked:                  Yes
    wK tasked:                  No
    OpenMP threads:              1
    Integrals threads:           1
    Memory (MB):               375
    Algorithm:                Core
    Integral Cache:           NONE
    Schwarz Cutoff:          1E-12
    Fitting Condition:       1E-12

   => Auxiliary Basis Set <=

  Basis Set: (3-21G AUX)
    Blend: DEF2-SVP-JKFIT
    Number of shells: 87
    Number of basis function: 315
    Number of Cartesian functions: 315
    Spherical Harmonics?: false
    Max angular momentum: 4

  Minimum eigenvalue in the overlap matrix is 2.7738658808E-02.
  Using Symmetric Orthogonalization.

  SCF Guess: Generalized Wolfsberg-Helmholtz.

  ==> Iterations <==

                           Total Energy        Delta E     RMS |[F,P]|

   @DF-UKS iter   1:  -185.20056670921787   -1.85201e+02   1.05266e-01 
   @DF-UKS iter   2:  -183.65759826901490    1.54297e+00   9.30636e-02 DIIS
   @DF-UKS iter   3:  -187.81729392654347   -4.15970e+00   4.26943e-02 DIIS
   @DF-UKS iter   4:  -188.45147583414061   -6.34182e-01   1.65052e-02 DIIS
   @DF-UKS iter   5:  -188.51077674969744   -5.93009e-02   1.26967e-02 DIIS
   @DF-UKS iter   6:  -188.55978025613481   -4.90035e-02   5.06969e-03 DIIS
   @DF-UKS iter   7:  -188.57189110598566   -1.21108e-02   6.13484e-04 DIIS
   @DF-UKS iter   8:  -188.57204375754600   -1.52652e-04   8.46624e-05 DIIS
   @DF-UKS iter   9:  -188.57204734682898   -3.58928e-06   2.57813e-05 DIIS
   @DF-UKS iter  10:  -188.57204767544798   -3.28619e-07   2.46416e-06 DIIS
   @DF-UKS iter  11:  -188.57204767859520   -3.14722e-09   6.51003e-07 DIIS
   @DF-UKS iter  12:  -188.57204767878892   -1.93722e-10   1.35264e-07 DIIS
   @DF-UKS iter  13:  -188.57204767879816   -9.23706e-12   1.53251e-08 DIIS
   @DF-UKS iter  14:  -188.57204767879816    0.00000e+00   1.21413e-09 DIIS

  ==> Post-Iterations <==

   @Spin Contamination Metric:   8.881784197E-15
   @S^2 Expected:                0.000000000E+00
   @S^2 Observed:                8.881784197E-15
   @S   Expected:                0.000000000E+00
   @S   Observed:                0.000000000E+00

    Orbital Energies [Eh]
    ---------------------

    Alpha Occupied:                                                       

       1A    -19.130343     2A    -19.107017     3A    -10.344741  
       4A     -1.167266     5A     -1.104870     6A     -0.600866  
       7A     -0.554598     8A     -0.500106     9A     -0.496497  
      10A     -0.399516    11A     -0.347328    12A     -0.295893  

    Alpha Virtual:                                                        

      13A     -0.065982    14A     -0.013095    15A      0.100829  
      16A      0.190162    17A      0.443176    18A      0.627112  
      19A      0.693842    20A      0.711648    21A      0.865422  
      22A      0.940679    23A      1.154652    24A      1.375922  
      25A      1.465623    26A      1.499095    27A      1.548152  
      28A      1.580732    29A      1.666487    30A      2.983009  
      31A      3.237879  

    Beta Occupied:                                                        

       1A    -19.130343     2A    -19.107017     3A    -10.344741  
       4A     -1.167266     5A     -1.104870     6A     -0.600866  
       7A     -0.554598     8A     -0.500106     9A     -0.496497  
      10A     -0.399516    11A     -0.347328    12A     -0.295893  

    Beta Virtual:                                                         

      13A     -0.065982    14A     -0.013095    15A      0.100829  
      16A      0.190162    17A      0.443176    18A      0.627112  
      19A      0.693842    20A      0.711648    21A      0.865422  
      22A      0.940679    23A      1.154652    24A      1.375922  
      25A      1.465623    26A      1.499095    27A      1.548152  
      28A      1.580732    29A      1.666487    30A      2.983009  
      31A      3.237879  

    Final Occupation by Irrep:
              A 
    DOCC [    12 ]
    SOCC [     0 ]

  Energy converged.

  @DF-UKS Final Energy:  -188.57204767879816

   => Energetics <=

    Nuclear Repulsion Energy =             68.6306278747657075
    One-Electron Energy =                -392.8800438611889945
    Two-Electron Energy =                 154.3711662625432552
    DFT Exchange-Correlation Energy =     -18.6937979549181179
    Empirical Dispersion Energy =           0.0000000000000000
    VV10 Nonlocal Energy =                  0.0000000000000000
    Total Energy =                       -188.5720476787981568


  UHF NO Occupations:
  HONO-2 :   10  A 2.0000000
  HONO-1 :   11  A 2.0000000
  HONO-0 :   12  A 2.0000000
  LUNO+0 :   13  A 0.0000000
  LUNO+1 :   14  A 0.0000000
  LUNO+2 :   15  A 0.0000000
  LUNO+3 :   16  A 0.0000000



Properties will be evaluated at   0.000000,   0.000000,   0.000000 [a0]

Properties computed using the SCF density matrix

  Nuclear Dipole Moment: [e a0]
     X:    -0.3512      Y:    -2.9117      Z:     0.5308

  Electronic Dipole Moment: [e a0]
     X:     0.2593      Y:     2.4764      Z:    -0.4542

  Dipole Moment: [e a0]
     X:    -0.0919      Y:    -0.4353      Z:     0.0766     Total:     0.4514

  Dipole Moment: [D]
     X:    -0.2337      Y:    -1.1064      Z:     0.1947     Total:     1.1475


*** tstop() called on DESKTOP-QL22TIG at Fri Mar 22 09:40:48 2019
Module time:
	user time   =       3.14 seconds =       0.05 minutes
	system time =       0.13 seconds =       0.00 minutes
	total time  =          4 seconds =       0.07 minutes
Total time:
	user time   =      14.73 seconds =       0.25 minutes
	system time =       0.85 seconds =       0.01 minutes
	total time  =         16 seconds =       0.27 minutes

*** tstart() called on DESKTOP-QL22TIG
*** at Fri Mar 22 09:40:48 2019


         ------------------------------------------------------------
                                   SCF GRAD                          
                          Rob Parrish, Justin Turney,                
                       Andy Simmonett, and Alex Sokolov              
         ------------------------------------------------------------

  ==> Geometry <==

    Molecular point group: c1
    Full point group: C1

    Geometry (in Angstrom), charge = 0, multiplicity = 1:

       Center              X                  Y                   Z               Mass       
    ------------   -----------------  -----------------  -----------------  -----------------
         C            0.129784220059    -0.144163990086     0.036181588442    12.000000000000
         O           -1.154568143689    -0.249148344850    -0.030180033832    15.994914619560
         O            1.080781139829     0.553102225072    -0.032661287164    15.994914619560
         H            0.341414245866    -1.653254996294     0.337901433320     1.007825032070
         H           -0.715679422785    -1.454177724418     0.228627958632     1.007825032070

  Nuclear repulsion =   68.630627874765707

  ==> Basis Set <==

  Basis Set: 3-21G
    Blend: 3-21G
    Number of shells: 19
    Number of basis function: 31
    Number of Cartesian functions: 31
    Spherical Harmonics?: false
    Max angular momentum: 1

  ==> DFJKGrad: Density-Fitted SCF Gradients <==

    Gradient:                    1
    J tasked:                  Yes
    K tasked:                  Yes
    wK tasked:                  No
    OpenMP threads:              1
    Integrals threads:           1
    Memory (MB):               375
    Schwarz Cutoff:          0E+00
    Fitting Condition:       1E-12

   => Auxiliary Basis Set <=

  Basis Set: (3-21G AUX)
    Blend: DEF2-SVP-JKFIT
    Number of shells: 87
    Number of basis function: 315
    Number of Cartesian functions: 315
    Spherical Harmonics?: false
    Max angular momentum: 4

  ==> DFT Potential <==

   => Composite Functional: B3LYP <= 

    B3LYP Hyb-GGA Exchange-Correlation Functional

    P. J. Stephens, F. J. Devlin, C. F. Chabalowski, and M. J. Frisch, J. Phys. Chem. 98, 11623 (1994)

    Deriv               =              1
    GGA                 =           TRUE
    Meta                =          FALSE

    Exchange Hybrid     =           TRUE
    MP2 Hybrid          =          FALSE

   => Exchange Functionals <=

    0.0800   Slater exchange
    0.7200         Becke 88

   => Exact (HF) Exchange <=

    0.2000               HF 

   => Correlation Functionals <=

    0.1900   Vosko, Wilk & Nusair (VWN5_RPA)
    0.8100   Lee, Yang & Parr

   => Molecular Quadrature <=

    Radial Scheme       =       TREUTLER
    Pruning Scheme      =           FLAT
    Nuclear Scheme      =       TREUTLER

    BS radius alpha     =              1
    Pruning alpha       =              1
    Radial Points       =             75
    Spherical Points    =            302
    Total Points        =         107712
    Total Blocks        =            869
    Max Points          =            256
    Max Functions       =             30


  -Total Gradient:
     Atom            X                  Y                   Z
    ------   -----------------  -----------------  -----------------
       1       -0.001077197378    -0.000603584522     0.000030617077
       2        0.000266104577     0.000226560272    -0.000013872011
       3        0.000681343732     0.000539328390    -0.000054896850
       4       -0.000110612369    -0.000067559253     0.000016215870
       5        0.000243814418    -0.000063897017     0.000016289361


*** tstop() called on DESKTOP-QL22TIG at Fri Mar 22 09:40:48 2019
Module time:
	user time   =       0.42 seconds =       0.01 minutes
	system time =       0.06 seconds =       0.00 minutes
	total time  =          0 seconds =       0.00 minutes
Total time:
	user time   =      15.15 seconds =       0.25 minutes
	system time =       0.91 seconds =       0.02 minutes
	total time  =         16 seconds =       0.27 minutes

  //>>>>>>>>>>>>>>>>>>>>>>>>>>>>>>>>>>>//
  //    Loading displacement 4 of 19   //
  //<<<<<<<<<<<<<<<<<<<<<<<<<<<<<<<<<<<//
gradient() will perform analytic gradient computation.

*** tstart() called on DESKTOP-QL22TIG
*** at Fri Mar 22 09:40:48 2019

   => Loading Basis Set <=

    Name: 3-21G
    Role: ORBITAL
    Keyword: BASIS
    atoms 1   entry C          line    68 file /home/wderricotte/src/psi4conda/share/psi4/basis/3-21g.gbs 
    atoms 2-3 entry O          line    90 file /home/wderricotte/src/psi4conda/share/psi4/basis/3-21g.gbs 
    atoms 4-5 entry H          line    21 file /home/wderricotte/src/psi4conda/share/psi4/basis/3-21g.gbs 


         ---------------------------------------------------------
                                   SCF
            by Justin Turney, Rob Parrish, Andy Simmonett
                             and Daniel Smith
                              UKS Reference
                        1 Threads,    500 MiB Core
         ---------------------------------------------------------

  ==> Geometry <==

    Molecular point group: c1
    Full point group: C1

    Geometry (in Angstrom), charge = 0, multiplicity = 1:

       Center              X                  Y                   Z               Mass       
    ------------   -----------------  -----------------  -----------------  -----------------
         C            0.129784220059    -0.142856520868     0.036157032142    12.000000000000
         O           -1.154585423697    -0.249546622384    -0.030158270642    15.994914619560
         O            1.080807778726     0.552581560666    -0.032640487924    15.994914619560
         H            0.341337064561    -1.653782817918     0.337672371407     1.007825032070
         H           -0.715750773851    -1.454633439322     0.228473911538     1.007825032070

  Running in c1 symmetry.

  Rotational constants: A =      3.12507  B =      0.36116  C =      0.32374 [cm^-1]
  Rotational constants: A =  93687.33033  B =  10827.17791  C =   9705.53703 [MHz]
  Nuclear repulsion =   68.643373793058956

  Charge       = 0
  Multiplicity = 1
  Electrons    = 24
  Nalpha       = 12
  Nbeta        = 12

  ==> Algorithm <==

  SCF Algorithm Type is DF.
  DIIS enabled.
  MOM disabled.
  Fractional occupation disabled.
  Guess Type is GWH.
  Energy threshold   = 1.00e-08
  Density threshold  = 1.00e-08
  Integral threshold = 0.00e+00

  ==> Primary Basis <==

  Basis Set: 3-21G
    Blend: 3-21G
    Number of shells: 19
    Number of basis function: 31
    Number of Cartesian functions: 31
    Spherical Harmonics?: false
    Max angular momentum: 1

  ==> DFT Potential <==

   => Composite Functional: B3LYP <= 

    B3LYP Hyb-GGA Exchange-Correlation Functional

    P. J. Stephens, F. J. Devlin, C. F. Chabalowski, and M. J. Frisch, J. Phys. Chem. 98, 11623 (1994)

    Deriv               =              1
    GGA                 =           TRUE
    Meta                =          FALSE

    Exchange Hybrid     =           TRUE
    MP2 Hybrid          =          FALSE

   => Exchange Functionals <=

    0.0800   Slater exchange
    0.7200         Becke 88

   => Exact (HF) Exchange <=

    0.2000               HF 

   => Correlation Functionals <=

    0.1900   Vosko, Wilk & Nusair (VWN5_RPA)
    0.8100   Lee, Yang & Parr

   => Molecular Quadrature <=

    Radial Scheme       =       TREUTLER
    Pruning Scheme      =           FLAT
    Nuclear Scheme      =       TREUTLER

    BS radius alpha     =              1
    Pruning alpha       =              1
    Radial Points       =             75
    Spherical Points    =            302
    Total Points        =         107712
    Total Blocks        =            872
    Max Points          =            256
    Max Functions       =             30

   => Loading Basis Set <=

    Name: (3-21G AUX)
    Role: JKFIT
    Keyword: DF_BASIS_SCF
    atoms 1   entry C          line   203 file /home/wderricotte/src/psi4conda/share/psi4/basis/def2-svp-jkfit.gbs 
    atoms 2-3 entry O          line   323 file /home/wderricotte/src/psi4conda/share/psi4/basis/def2-svp-jkfit.gbs 
    atoms 4-5 entry H          line    23 file /home/wderricotte/src/psi4conda/share/psi4/basis/def2-svp-jkfit.gbs 

  ==> Pre-Iterations <==

   -------------------------------------------------------
    Irrep   Nso     Nmo     Nalpha   Nbeta   Ndocc  Nsocc
   -------------------------------------------------------
     A         31      31       0       0       0       0
   -------------------------------------------------------
    Total      31      31      12      12      12       0
   -------------------------------------------------------

  ==> Integral Setup <==

  ==> DiskDFJK: Density-Fitted J/K Matrices <==

    J tasked:                  Yes
    K tasked:                  Yes
    wK tasked:                  No
    OpenMP threads:              1
    Integrals threads:           1
    Memory (MB):               375
    Algorithm:                Core
    Integral Cache:           NONE
    Schwarz Cutoff:          1E-12
    Fitting Condition:       1E-12

   => Auxiliary Basis Set <=

  Basis Set: (3-21G AUX)
    Blend: DEF2-SVP-JKFIT
    Number of shells: 87
    Number of basis function: 315
    Number of Cartesian functions: 315
    Spherical Harmonics?: false
    Max angular momentum: 4

  Minimum eigenvalue in the overlap matrix is 2.7661556143E-02.
  Using Symmetric Orthogonalization.

  SCF Guess: Generalized Wolfsberg-Helmholtz.

  ==> Iterations <==

                           Total Energy        Delta E     RMS |[F,P]|

   @DF-UKS iter   1:  -185.19914906003970   -1.85199e+02   1.05249e-01 
   @DF-UKS iter   2:  -183.66492256847101    1.53423e+00   9.30286e-02 DIIS
   @DF-UKS iter   3:  -187.81993776450537   -4.15502e+00   4.26318e-02 DIIS
   @DF-UKS iter   4:  -188.45173799743452   -6.31800e-01   1.64848e-02 DIIS
   @DF-UKS iter   5:  -188.51118951309621   -5.94515e-02   1.26538e-02 DIIS
   @DF-UKS iter   6:  -188.55982875092661   -4.86392e-02   5.06219e-03 DIIS
   @DF-UKS iter   7:  -188.57189296374179   -1.20642e-02   6.10156e-04 DIIS
   @DF-UKS iter   8:  -188.57204399586669   -1.51032e-04   8.42164e-05 DIIS
   @DF-UKS iter   9:  -188.57204755235369   -3.55649e-06   2.55833e-05 DIIS
   @DF-UKS iter  10:  -188.57204787654337   -3.24190e-07   2.45071e-06 DIIS
   @DF-UKS iter  11:  -188.57204787966589   -3.12252e-09   6.45999e-07 DIIS
   @DF-UKS iter  12:  -188.57204787985694   -1.91051e-10   1.34640e-07 DIIS
   @DF-UKS iter  13:  -188.57204787986586   -8.92442e-12   1.51739e-08 DIIS
   @DF-UKS iter  14:  -188.57204787986603   -1.70530e-13   1.19652e-09 DIIS

  ==> Post-Iterations <==

   @Spin Contamination Metric:  -5.684341886E-14
   @S^2 Expected:                0.000000000E+00
   @S^2 Observed:               -5.684341886E-14
   @S   Expected:                0.000000000E+00
   @S   Observed:                0.000000000E+00

    Orbital Energies [Eh]
    ---------------------

    Alpha Occupied:                                                       

       1A    -19.130802     2A    -19.106973     3A    -10.344879  
       4A     -1.168016     5A     -1.104997     6A     -0.600522  
       7A     -0.554783     8A     -0.500534     9A     -0.496797  
      10A     -0.400053    11A     -0.347519    12A     -0.295579  

    Alpha Virtual:                                                        

      13A     -0.065823    14A     -0.012937    15A      0.101077  
      16A      0.189574    17A      0.443759    18A      0.626957  
      19A      0.693730    20A      0.712092    21A      0.865957  
      22A      0.941234    23A      1.154563    24A      1.375713  
      25A      1.464942    26A      1.498448    27A      1.548265  
      28A      1.580827    29A      1.666715    30A      2.982910  
      31A      3.239981  

    Beta Occupied:                                                        

       1A    -19.130802     2A    -19.106973     3A    -10.344879  
       4A     -1.168016     5A     -1.104997     6A     -0.600522  
       7A     -0.554783     8A     -0.500534     9A     -0.496797  
      10A     -0.400053    11A     -0.347519    12A     -0.295579  

    Beta Virtual:                                                         

      13A     -0.065823    14A     -0.012937    15A      0.101077  
      16A      0.189574    17A      0.443759    18A      0.626957  
      19A      0.693730    20A      0.712092    21A      0.865957  
      22A      0.941234    23A      1.154563    24A      1.375713  
      25A      1.464942    26A      1.498448    27A      1.548265  
      28A      1.580827    29A      1.666715    30A      2.982910  
      31A      3.239981  

    Final Occupation by Irrep:
              A 
    DOCC [    12 ]
    SOCC [     0 ]

  Energy converged.

  @DF-UKS Final Energy:  -188.57204787986603

   => Energetics <=

    Nuclear Repulsion Energy =             68.6433737930589558
    One-Electron Energy =                -392.9004506273990387
    Two-Electron Energy =                 154.3791888368933769
    DFT Exchange-Correlation Energy =     -18.6941598824193207
    Empirical Dispersion Energy =           0.0000000000000000
    VV10 Nonlocal Energy =                  0.0000000000000000
    Total Energy =                       -188.5720478798660054


  UHF NO Occupations:
  HONO-2 :   10  A 2.0000000
  HONO-1 :   11  A 2.0000000
  HONO-0 :   12  A 2.0000000
  LUNO+0 :   13  A 0.0000000
  LUNO+1 :   14  A 0.0000000
  LUNO+2 :   15  A 0.0000000
  LUNO+3 :   16  A 0.0000000



Properties will be evaluated at   0.000000,   0.000000,   0.000000 [a0]

Properties computed using the SCF density matrix

  Nuclear Dipole Moment: [e a0]
     X:    -0.3514      Y:    -2.9126      Z:     0.5304

  Electronic Dipole Moment: [e a0]
     X:     0.2607      Y:     2.4841      Z:    -0.4549

  Dipole Moment: [e a0]
     X:    -0.0907      Y:    -0.4285      Z:     0.0755     Total:     0.4444

  Dipole Moment: [D]
     X:    -0.2305      Y:    -1.0890      Z:     0.1920     Total:     1.1296


*** tstop() called on DESKTOP-QL22TIG at Fri Mar 22 09:40:52 2019
Module time:
	user time   =       3.02 seconds =       0.05 minutes
	system time =       0.23 seconds =       0.00 minutes
	total time  =          4 seconds =       0.07 minutes
Total time:
	user time   =      18.19 seconds =       0.30 minutes
	system time =       1.14 seconds =       0.02 minutes
	total time  =         20 seconds =       0.33 minutes

*** tstart() called on DESKTOP-QL22TIG
*** at Fri Mar 22 09:40:52 2019


         ------------------------------------------------------------
                                   SCF GRAD                          
                          Rob Parrish, Justin Turney,                
                       Andy Simmonett, and Alex Sokolov              
         ------------------------------------------------------------

  ==> Geometry <==

    Molecular point group: c1
    Full point group: C1

    Geometry (in Angstrom), charge = 0, multiplicity = 1:

       Center              X                  Y                   Z               Mass       
    ------------   -----------------  -----------------  -----------------  -----------------
         C            0.129784220059    -0.142856520868     0.036157032142    12.000000000000
         O           -1.154585423697    -0.249546622384    -0.030158270642    15.994914619560
         O            1.080807778726     0.552581560666    -0.032640487924    15.994914619560
         H            0.341337064561    -1.653782817918     0.337672371407     1.007825032070
         H           -0.715750773851    -1.454633439322     0.228473911538     1.007825032070

  Nuclear repulsion =   68.643373793058956

  ==> Basis Set <==

  Basis Set: 3-21G
    Blend: 3-21G
    Number of shells: 19
    Number of basis function: 31
    Number of Cartesian functions: 31
    Spherical Harmonics?: false
    Max angular momentum: 1

  ==> DFJKGrad: Density-Fitted SCF Gradients <==

    Gradient:                    1
    J tasked:                  Yes
    K tasked:                  Yes
    wK tasked:                  No
    OpenMP threads:              1
    Integrals threads:           1
    Memory (MB):               375
    Schwarz Cutoff:          0E+00
    Fitting Condition:       1E-12

   => Auxiliary Basis Set <=

  Basis Set: (3-21G AUX)
    Blend: DEF2-SVP-JKFIT
    Number of shells: 87
    Number of basis function: 315
    Number of Cartesian functions: 315
    Spherical Harmonics?: false
    Max angular momentum: 4

  ==> DFT Potential <==

   => Composite Functional: B3LYP <= 

    B3LYP Hyb-GGA Exchange-Correlation Functional

    P. J. Stephens, F. J. Devlin, C. F. Chabalowski, and M. J. Frisch, J. Phys. Chem. 98, 11623 (1994)

    Deriv               =              1
    GGA                 =           TRUE
    Meta                =          FALSE

    Exchange Hybrid     =           TRUE
    MP2 Hybrid          =          FALSE

   => Exchange Functionals <=

    0.0800   Slater exchange
    0.7200         Becke 88

   => Exact (HF) Exchange <=

    0.2000               HF 

   => Correlation Functionals <=

    0.1900   Vosko, Wilk & Nusair (VWN5_RPA)
    0.8100   Lee, Yang & Parr

   => Molecular Quadrature <=

    Radial Scheme       =       TREUTLER
    Pruning Scheme      =           FLAT
    Nuclear Scheme      =       TREUTLER

    BS radius alpha     =              1
    Pruning alpha       =              1
    Radial Points       =             75
    Spherical Points    =            302
    Total Points        =         107712
    Total Blocks        =            872
    Max Points          =            256
    Max Functions       =             30


  -Total Gradient:
     Atom            X                  Y                   Z
    ------   -----------------  -----------------  -----------------
       1        0.000814817825     0.000532955720     0.000017928461
       2       -0.000023179876    -0.000199186233     0.000014214845
       3       -0.000643523283    -0.000538824444     0.000029499242
       4        0.000056704613     0.000148214959    -0.000034462782
       5       -0.000201912896     0.000087214580    -0.000032647781


*** tstop() called on DESKTOP-QL22TIG at Fri Mar 22 09:40:52 2019
Module time:
	user time   =       0.48 seconds =       0.01 minutes
	system time =       0.02 seconds =       0.00 minutes
	total time  =          0 seconds =       0.00 minutes
Total time:
	user time   =      18.67 seconds =       0.31 minutes
	system time =       1.16 seconds =       0.02 minutes
	total time  =         20 seconds =       0.33 minutes

  //>>>>>>>>>>>>>>>>>>>>>>>>>>>>>>>>>>>//
  //    Loading displacement 5 of 19   //
  //<<<<<<<<<<<<<<<<<<<<<<<<<<<<<<<<<<<//
gradient() will perform analytic gradient computation.

*** tstart() called on DESKTOP-QL22TIG
*** at Fri Mar 22 09:40:52 2019

   => Loading Basis Set <=

    Name: 3-21G
    Role: ORBITAL
    Keyword: BASIS
    atoms 1   entry C          line    68 file /home/wderricotte/src/psi4conda/share/psi4/basis/3-21g.gbs 
    atoms 2-3 entry O          line    90 file /home/wderricotte/src/psi4conda/share/psi4/basis/3-21g.gbs 
    atoms 4-5 entry H          line    21 file /home/wderricotte/src/psi4conda/share/psi4/basis/3-21g.gbs 


         ---------------------------------------------------------
                                   SCF
            by Justin Turney, Rob Parrish, Andy Simmonett
                             and Daniel Smith
                              UKS Reference
                        1 Threads,    500 MiB Core
         ---------------------------------------------------------

  ==> Geometry <==

    Molecular point group: c1
    Full point group: C1

    Geometry (in Angstrom), charge = 0, multiplicity = 1:

       Center              X                  Y                   Z               Mass       
    ------------   -----------------  -----------------  -----------------  -----------------
         C            0.129784220059    -0.143510255477     0.035546762910    12.000000000000
         O           -1.154572929305    -0.249357635034    -0.030020036521    15.994914619560
         O            1.080795721088     0.552839194563    -0.032427858528    15.994914619560
         H            0.341326832231    -1.653396058072     0.338657730008     1.007825032070
         H           -0.715747473119    -1.454324496479     0.229186465511     1.007825032070

  Running in c1 symmetry.

  Rotational constants: A =      3.12342  B =      0.36116  C =      0.32373 [cm^-1]
  Rotational constants: A =  93637.77660  B =  10827.29890  C =   9705.10353 [MHz]
  Nuclear repulsion =   68.638203870327644

  Charge       = 0
  Multiplicity = 1
  Electrons    = 24
  Nalpha       = 12
  Nbeta        = 12

  ==> Algorithm <==

  SCF Algorithm Type is DF.
  DIIS enabled.
  MOM disabled.
  Fractional occupation disabled.
  Guess Type is GWH.
  Energy threshold   = 1.00e-08
  Density threshold  = 1.00e-08
  Integral threshold = 0.00e+00

  ==> Primary Basis <==

  Basis Set: 3-21G
    Blend: 3-21G
    Number of shells: 19
    Number of basis function: 31
    Number of Cartesian functions: 31
    Spherical Harmonics?: false
    Max angular momentum: 1

  ==> DFT Potential <==

   => Composite Functional: B3LYP <= 

    B3LYP Hyb-GGA Exchange-Correlation Functional

    P. J. Stephens, F. J. Devlin, C. F. Chabalowski, and M. J. Frisch, J. Phys. Chem. 98, 11623 (1994)

    Deriv               =              1
    GGA                 =           TRUE
    Meta                =          FALSE

    Exchange Hybrid     =           TRUE
    MP2 Hybrid          =          FALSE

   => Exchange Functionals <=

    0.0800   Slater exchange
    0.7200         Becke 88

   => Exact (HF) Exchange <=

    0.2000               HF 

   => Correlation Functionals <=

    0.1900   Vosko, Wilk & Nusair (VWN5_RPA)
    0.8100   Lee, Yang & Parr

   => Molecular Quadrature <=

    Radial Scheme       =       TREUTLER
    Pruning Scheme      =           FLAT
    Nuclear Scheme      =       TREUTLER

    BS radius alpha     =              1
    Pruning alpha       =              1
    Radial Points       =             75
    Spherical Points    =            302
    Total Points        =         107713
    Total Blocks        =            868
    Max Points          =            256
    Max Functions       =             30

   => Loading Basis Set <=

    Name: (3-21G AUX)
    Role: JKFIT
    Keyword: DF_BASIS_SCF
    atoms 1   entry C          line   203 file /home/wderricotte/src/psi4conda/share/psi4/basis/def2-svp-jkfit.gbs 
    atoms 2-3 entry O          line   323 file /home/wderricotte/src/psi4conda/share/psi4/basis/def2-svp-jkfit.gbs 
    atoms 4-5 entry H          line    23 file /home/wderricotte/src/psi4conda/share/psi4/basis/def2-svp-jkfit.gbs 

[...]
    Memory (MB):               375
    Algorithm:                Core
    Integral Cache:           NONE
    Schwarz Cutoff:          1E-12
    Fitting Condition:       1E-12

   => Auxiliary Basis Set <=

  Basis Set: (3-21G AUX)
    Blend: DEF2-SVP-JKFIT
    Number of shells: 87
    Number of basis function: 315
    Number of Cartesian functions: 315
    Spherical Harmonics?: false
    Max angular momentum: 4

  Minimum eigenvalue in the overlap matrix is 2.7700075474E-02.
  Using Symmetric Orthogonalization.

  SCF Guess: Generalized Wolfsberg-Helmholtz.

  ==> Iterations <==

                           Total Energy        Delta E     RMS |[F,P]|

   @DF-UKS iter   1:  -185.19985963286365   -1.85200e+02   1.05258e-01 
   @DF-UKS iter   2:  -183.66126915857211    1.53859e+00   9.30461e-02 DIIS
   @DF-UKS iter   3:  -187.81861762563341   -4.15735e+00   4.26630e-02 DIIS
   @DF-UKS iter   4:  -188.45160742308929   -6.32990e-01   1.64950e-02 DIIS
   @DF-UKS iter   5:  -188.51098383865940   -5.93764e-02   1.26753e-02 DIIS
   @DF-UKS iter   6:  -188.55980504537632   -4.88212e-02   5.06593e-03 DIIS
   @DF-UKS iter   7:  -188.57189251935790   -1.20875e-02   6.11819e-04 DIIS
   @DF-UKS iter   8:  -188.57204435962217   -1.51840e-04   8.44382e-05 DIIS
   @DF-UKS iter   9:  -188.57204793237281   -3.57275e-06   2.56821e-05 DIIS
   @DF-UKS iter  10:  -188.57204825876755   -3.26395e-07   2.45742e-06 DIIS
   @DF-UKS iter  11:  -188.57204826190241   -3.13486e-09   6.48487e-07 DIIS
   @DF-UKS iter  12:  -188.57204826209511   -1.92699e-10   1.34954e-07 DIIS
   @DF-UKS iter  13:  -188.57204826210369   -8.58336e-12   1.52494e-08 DIIS
   @DF-UKS iter  14:  -188.57204826210386   -1.70530e-13   1.20531e-09 DIIS

  ==> Post-Iterations <==

   @Spin Contamination Metric:   2.486899575E-14
   @S^2 Expected:                0.000000000E+00
   @S^2 Observed:                2.486899575E-14
   @S   Expected:                0.000000000E+00
   @S   Observed:                0.000000000E+00

    Orbital Energies [Eh]
    ---------------------

    Alpha Occupied:                                                       

       1A    -19.130573     2A    -19.106995     3A    -10.344810  
       4A     -1.167640     5A     -1.104935     6A     -0.600694  
       7A     -0.554690     8A     -0.500320     9A     -0.496647  
      10A     -0.399784    11A     -0.347424    12A     -0.295736  

    Alpha Virtual:                                                        

      13A     -0.065903    14A     -0.013016    15A      0.100953  
      16A      0.189868    17A      0.443468    18A      0.627035  
      19A      0.693788    20A      0.711868    21A      0.865689  
      22A      0.940956    23A      1.154607    24A      1.375818  
      25A      1.465283    26A      1.498771    27A      1.548209  
      28A      1.580780    29A      1.666601    30A      2.982960  
      31A      3.238930  

    Beta Occupied:                                                        

       1A    -19.130573     2A    -19.106995     3A    -10.344810  
       4A     -1.167640     5A     -1.104935     6A     -0.600694  
       7A     -0.554690     8A     -0.500320     9A     -0.496647  
      10A     -0.399784    11A     -0.347424    12A     -0.295736  

    Beta Virtual:                                                         

      13A     -0.065903    14A     -0.013016    15A      0.100953  
      16A      0.189868    17A      0.443468    18A      0.627035  
      19A      0.693788    20A      0.711868    21A      0.865689  
      22A      0.940956    23A      1.154607    24A      1.375818  
      25A      1.465283    26A      1.498771    27A      1.548209  
      28A      1.580780    29A      1.666601    30A      2.982960  
      31A      3.238930  

    Final Occupation by Irrep:
              A 
    DOCC [    12 ]
    SOCC [     0 ]

  Energy converged.

  @DF-UKS Final Energy:  -188.57204826210386

   => Energetics <=

    Nuclear Repulsion Energy =             68.6370040572177089
    One-Electron Energy =                -392.8902550051099070
    Two-Electron Energy =                 154.3751815414890132
    DFT Exchange-Correlation Energy =     -18.6939788557006779
    Empirical Dispersion Energy =           0.0000000000000000
    VV10 Nonlocal Energy =                  0.0000000000000000
    Total Energy =                       -188.5720482621038627


  UHF NO Occupations:
  HONO-2 :   10  A 2.0000000
  HONO-1 :   11  A 2.0000000
  HONO-0 :   12  A 2.0000000
  LUNO+0 :   13  A 0.0000000
  LUNO+1 :   14  A 0.0000000
  LUNO+2 :   15  A 0.0000000
  LUNO+3 :   16  A 0.0000000



Properties will be evaluated at   0.000000,   0.000000,   0.000000 [a0]

Properties computed using the SCF density matrix

  Nuclear Dipole Moment: [e a0]
     X:    -0.3513      Y:    -2.9121      Z:     0.5306

  Electronic Dipole Moment: [e a0]
     X:     0.2600      Y:     2.4802      Z:    -0.4546

  Dipole Moment: [e a0]
     X:    -0.0913      Y:    -0.4319      Z:     0.0761     Total:     0.4479

  Dipole Moment: [D]
     X:    -0.2321      Y:    -1.0977      Z:     0.1933     Total:     1.1385


*** tstop() called on DESKTOP-QL22TIG at Fri Mar 22 09:41:53 2019
Module time:
	user time   =       3.07 seconds =       0.05 minutes
	system time =       0.25 seconds =       0.00 minutes
	total time  =          3 seconds =       0.05 minutes
Total time:
	user time   =      73.83 seconds =       1.23 minutes
	system time =       4.60 seconds =       0.08 minutes
	total time  =         81 seconds =       1.35 minutes

*** tstart() called on DESKTOP-QL22TIG
*** at Fri Mar 22 09:41:53 2019


         ------------------------------------------------------------
                                   SCF GRAD                          
                          Rob Parrish, Justin Turney,                
                       Andy Simmonett, and Alex Sokolov              
         ------------------------------------------------------------

  ==> Geometry <==

    Molecular point group: c1
    Full point group: C1

    Geometry (in Angstrom), charge = 0, multiplicity = 1:

       Center              X                  Y                   Z               Mass       
    ------------   -----------------  -----------------  -----------------  -----------------
         C            0.129784220059    -0.143510255477     0.036169310292    12.000000000000
         O           -1.154576783693    -0.249347483617    -0.030169152237    15.994914619560
         O            1.080794459278     0.552841892869    -0.032650887544    15.994914619560
         H            0.341375655214    -1.653518907106     0.337786902363     1.007825032070
         H           -0.715715098318    -1.454405581870     0.228550935085     1.007825032070

  Nuclear repulsion =   68.637004057217709

  ==> Basis Set <==

  Basis Set: 3-21G
    Blend: 3-21G
    Number of shells: 19
    Number of basis function: 31
    Number of Cartesian functions: 31
    Spherical Harmonics?: false
    Max angular momentum: 1

  ==> DFJKGrad: Density-Fitted SCF Gradients <==

    Gradient:                    1
    J tasked:                  Yes
    K tasked:                  Yes
    wK tasked:                  No
    OpenMP threads:              1
    Integrals threads:           1
    Memory (MB):               375
    Schwarz Cutoff:          0E+00
    Fitting Condition:       1E-12

   => Auxiliary Basis Set <=

  Basis Set: (3-21G AUX)
    Blend: DEF2-SVP-JKFIT
    Number of shells: 87
    Number of basis function: 315
    Number of Cartesian functions: 315
    Spherical Harmonics?: false
    Max angular momentum: 4

  ==> DFT Potential <==

   => Composite Functional: B3LYP <= 

    B3LYP Hyb-GGA Exchange-Correlation Functional

    P. J. Stephens, F. J. Devlin, C. F. Chabalowski, and M. J. Frisch, J. Phys. Chem. 98, 11623 (1994)

    Deriv               =              1
    GGA                 =           TRUE
    Meta                =          FALSE

    Exchange Hybrid     =           TRUE
    MP2 Hybrid          =          FALSE

   => Exchange Functionals <=

    0.0800   Slater exchange
    0.7200         Becke 88

   => Exact (HF) Exchange <=

    0.2000               HF 

   => Correlation Functionals <=

    0.1900   Vosko, Wilk & Nusair (VWN5_RPA)
    0.8100   Lee, Yang & Parr

   => Molecular Quadrature <=

    Radial Scheme       =       TREUTLER
    Pruning Scheme      =           FLAT
    Nuclear Scheme      =       TREUTLER

    BS radius alpha     =              1
    Pruning alpha       =              1
    Radial Points       =             75
    Spherical Points    =            302
    Total Points        =         107712
    Total Blocks        =            871
    Max Points          =            256
    Max Functions       =             30


  -Total Gradient:
     Atom            X                  Y                   Z
    ------   -----------------  -----------------  -----------------
       1       -0.000132162484    -0.000034862108     0.000024239977
       2        0.000122312443     0.000013931148     0.000000209221
       3        0.000019152962    -0.000000173993    -0.000012711560
       4       -0.000027103488     0.000040261709    -0.000009156265
       5        0.000020981176     0.000011457282    -0.000008137839


*** tstop() called on DESKTOP-QL22TIG at Fri Mar 22 09:41:54 2019
Module time:
	user time   =       0.45 seconds =       0.01 minutes
	system time =       0.04 seconds =       0.00 minutes
	total time  =          1 seconds =       0.02 minutes
Total time:
	user time   =      74.28 seconds =       1.24 minutes
	system time =       4.64 seconds =       0.08 minutes
	total time  =         82 seconds =       1.37 minutes

-------------------------------------------------------------

  Computing second-derivative from gradients using projected, 
  symmetry-adapted, cartesian coordinates (fd_freq_1).

  19 gradients passed in, including the reference geometry.
  Generating complete list of displacements from unique ones.


-------------------------------------------------------------


  ==> Harmonic Vibrational Analysis <==

  non-mass-weighted Hessian:       Symmetric? True   Hermitian? True   Lin Dep Dim?  6 (0)
  projection of translations (True) and rotations (True) removed 6 degrees of freedom (6)
  total projector:                 Symmetric? True   Hermitian? True   Lin Dep Dim?  6 (6)
  mass-weighted Hessian:           Symmetric? True   Hermitian? True   Lin Dep Dim?  6 (0)
  pre-proj  low-frequency mode:    0.0000i [cm^-1]
  pre-proj  low-frequency mode:    0.0000i [cm^-1]
  pre-proj  low-frequency mode:    0.0000i [cm^-1]
  pre-proj  low-frequency mode:    0.0000i [cm^-1]
  pre-proj  low-frequency mode:    0.0000  [cm^-1]
  pre-proj  low-frequency mode:    0.0000  [cm^-1]
  pre-proj  low-frequency mode:    0.0000  [cm^-1]
  pre-proj  all modes:['2393.3137i' '0.0000i' '0.0000i' '0.0000i' '0.0000' '0.0000' '0.0000'
 '538.1832' '685.4476' '779.4751' '1104.2361' '1209.5057' '1554.9422'
 '1846.4619' '2100.3591']
  projected mass-weighted Hessian: Symmetric? True   Hermitian? True   Lin Dep Dim?  6 (6)
  post-proj low-frequency mode: 2393.3137i [cm^-1] (V)
  post-proj low-frequency mode:    0.0000i [cm^-1] (TR)
  post-proj low-frequency mode:    0.0000i [cm^-1] (TR)
  post-proj low-frequency mode:    0.0000i [cm^-1] (TR)
  post-proj low-frequency mode:    0.0000  [cm^-1] (TR)
  post-proj low-frequency mode:    0.0000  [cm^-1] (TR)
  post-proj low-frequency mode:    0.0000  [cm^-1] (TR)
  post-proj  all modes:['2393.3137i' '0.0000i' '0.0000i' '0.0000i' '0.0000' '0.0000' '0.0000'
 '538.1832' '685.4476' '779.4751' '1104.2361' '1209.5057' '1554.9422'
 '1846.4619' '2100.3591']

  Vibration                       1                   8                   9           
  Freq [cm^-1]                2393.3137i           538.1832            685.4476       
  Irrep                           A                   A                   A           
  Reduced mass [u]              1.1421              3.0240              9.5157        
  Force const [mDyne/A]        -3.8543              0.5161              2.6341        
  Turning point v=0 [a0]        0.0000              0.2720              0.1359        
  RMS dev v=0 [a0 u^1/2]        0.0000              0.3345              0.2964        
  Char temp [K]                 0.0000             774.3246            986.2050       
  ----------------------------------------------------------------------------------
      1   C               -0.07  0.07 -0.02   -0.03  0.07  0.38   -0.15  0.53 -0.11   
      2   O                0.02  0.03 -0.00    0.00 -0.01 -0.07   -0.28 -0.31  0.04   
      3   O                0.00 -0.02  0.00    0.01 -0.03 -0.14    0.38 -0.13  0.05   
      4   H               -0.24 -0.37  0.05    0.01 -0.04 -0.21    0.31  0.39 -0.05   
      5   H                0.70 -0.53  0.15    0.06 -0.16 -0.87   -0.03  0.30 -0.06   

  Vibration                       10                  11                  12          
  Freq [cm^-1]                 779.4751           1104.2361           1209.5057       
  Irrep                           A                   A                   A           
  Reduced mass [u]              1.1522              1.1279              7.4088        
  Force const [mDyne/A]         0.4125              0.8103              6.3858        
  Turning point v=0 [a0]        0.3661              0.3109              0.1159        
  RMS dev v=0 [a0 u^1/2]        0.2779              0.2335              0.2231        
  Char temp [K]               1121.4894           1588.7475           1740.2068       
  ----------------------------------------------------------------------------------
      1   C               -0.02 -0.06  0.01   -0.01  0.02  0.08   -0.27  0.28 -0.07   
      2   O               -0.04  0.05 -0.01    0.00 -0.01 -0.05    0.44 -0.02  0.03   
      3   O               -0.01 -0.05  0.01    0.00 -0.00 -0.02   -0.24 -0.24  0.03   
      4   H                0.54  0.64 -0.09    0.05 -0.13 -0.68    0.40  0.35 -0.04   
      5   H                0.53 -0.01  0.04   -0.05  0.13  0.70   -0.36  0.34 -0.09   

  Vibration                       13                  14                  15          
  Freq [cm^-1]                1554.9422           1846.4619           2100.3591       
  Irrep                           A                   A                   A           
  Reduced mass [u]              1.0662              1.1131              5.4294        
  Force const [mDyne/A]         1.5188              2.2360             14.1121        
  Turning point v=0 [a0]        0.2695              0.2420              0.1028        
  RMS dev v=0 [a0 u^1/2]        0.1968              0.1806              0.1693        
  Char temp [K]               2237.2122           2656.6435           3021.9445       
  ----------------------------------------------------------------------------------
      1   C               -0.03 -0.02  0.00    0.07  0.01  0.00    0.46  0.25 -0.02   
      2   O                0.03 -0.02  0.01    0.00 -0.03  0.01   -0.11  0.02 -0.01   
      3   O                0.03  0.02 -0.00   -0.04 -0.03  0.00   -0.23 -0.17  0.02   
      4   H               -0.54  0.65 -0.16   -0.58  0.15 -0.07    0.09  0.13 -0.02   
      5   H               -0.19 -0.46  0.07    0.46  0.64 -0.09   -0.22 -0.74  0.13   

  ==> Thermochemistry Components <==

  Entropy, S
    Electronic S            0.000 [cal/(mol K)]        0.000 [J/(mol K)]       0.00000000 [mEh/K] (multiplicity = 1)
    Translational S        37.404 [cal/(mol K)]      156.497 [J/(mol K)]       0.05960663 [mEh/K] (mol. weight = 46.0055 [u], P = 101325.00 [Pa])
    Rotational S           21.018 [cal/(mol K)]       87.941 [J/(mol K)]       0.03349485 [mEh/K] (symmetry no. = 1)
    Vibrational S           1.232 [cal/(mol K)]        5.153 [J/(mol K)]       0.00196262 [mEh/K]
  Total S                  59.654 [cal/(mol K)]      249.591 [J/(mol K)]       0.09506409 [mEh/K]
  Correction S              0.000 [cal/(mol K)]        0.000 [J/(mol K)]       0.00000000 [mEh/K]

  Constant volume heat capacity, Cv
    Electronic Cv           0.000 [cal/(mol K)]        0.000 [J/(mol K)]       0.00000000 [mEh/K]
    Translational Cv        2.981 [cal/(mol K)]       12.472 [J/(mol K)]       0.00475022 [mEh/K]
    Rotational Cv           2.981 [cal/(mol K)]       12.472 [J/(mol K)]       0.00475022 [mEh/K]
    Vibrational Cv          3.274 [cal/(mol K)]       13.700 [J/(mol K)]       0.00521801 [mEh/K]
  Total Cv                  9.236 [cal/(mol K)]       38.643 [J/(mol K)]       0.01471845 [mEh/K]
  Correction Cv             0.000 [cal/(mol K)]        0.000 [J/(mol K)]       0.00000000 [mEh/K]

  Constant pressure heat capacity, Cp
    Electronic Cp           0.000 [cal/(mol K)]        0.000 [J/(mol K)]       0.00000000 [mEh/K]
    Translational Cp        4.968 [cal/(mol K)]       20.786 [J/(mol K)]       0.00791704 [mEh/K]
    Rotational Cp           2.981 [cal/(mol K)]       12.472 [J/(mol K)]       0.00475022 [mEh/K]
    Vibrational Cp          3.274 [cal/(mol K)]       13.700 [J/(mol K)]       0.00521801 [mEh/K]
  Total Cp                 11.223 [cal/(mol K)]       46.958 [J/(mol K)]       0.01788527 [mEh/K]
  Correction Cp             0.000 [cal/(mol K)]        0.000 [J/(mol K)]       0.00000000 [mEh/K]

  ==> Thermochemistry Energy Analysis <==

  Raw electronic energy, E0
  Total E0, Electronic energy at well bottom at 0 [K]                 -188.57204826 [Eh]

  Zero-point energy, ZPE_vib = Sum_i nu_i / 2
    Electronic ZPE          0.000 [kcal/mol]        0.000 [kJ/mol]       0.00000000 [Eh]
    Translational ZPE       0.000 [kcal/mol]        0.000 [kJ/mol]       0.00000000 [Eh]
    Rotational ZPE          0.000 [kcal/mol]        0.000 [kJ/mol]       0.00000000 [Eh]
    Vibrational ZPE        14.036 [kcal/mol]       58.728 [kJ/mol]       0.02236844 [Eh]        4909.304 [cm^-1]
  Correction ZPE           14.036 [kcal/mol]       58.728 [kJ/mol]       0.02236844 [Eh]        4909.304 [cm^-1]
  Total ZPE, Electronic energy at 0 [K]                               -188.54967983 [Eh]

  Thermal Energy, E (includes ZPE)
    Electronic E            0.000 [kcal/mol]        0.000 [kJ/mol]       0.00000000 [Eh]
    Translational E         0.889 [kcal/mol]        3.718 [kJ/mol]       0.00141628 [Eh]
    Rotational E            0.889 [kcal/mol]        3.718 [kJ/mol]       0.00141628 [Eh]
    Vibrational E          14.317 [kcal/mol]       59.901 [kJ/mol]       0.02281505 [Eh]
  Correction E             16.094 [kcal/mol]       67.338 [kJ/mol]       0.02564761 [Eh]
  Total E, Electronic energy at  298.15 [K]                           -188.54640065 [Eh]

  Enthalpy, H_trans = E_trans + k_B * T
    Electronic H            0.000 [kcal/mol]        0.000 [kJ/mol]       0.00000000 [Eh]
    Translational H         1.481 [kcal/mol]        6.197 [kJ/mol]       0.00236046 [Eh]
    Rotational H            0.889 [kcal/mol]        3.718 [kJ/mol]       0.00141628 [Eh]
    Vibrational H          14.317 [kcal/mol]       59.901 [kJ/mol]       0.02281505 [Eh]
  Correction H             16.687 [kcal/mol]       69.817 [kJ/mol]       0.02659179 [Eh]
  Total H, Enthalpy at  298.15 [K]                                    -188.54545647 [Eh]

  Gibbs free energy, G = H - T * S
    Electronic G            0.000 [kcal/mol]        0.000 [kJ/mol]       0.00000000 [Eh]
    Translational G        -9.671 [kcal/mol]      -40.462 [kJ/mol]      -0.01541125 [Eh]
    Rotational G           -5.378 [kcal/mol]      -22.501 [kJ/mol]      -0.00857021 [Eh]
    Vibrational G          13.949 [kcal/mol]       58.365 [kJ/mol]       0.02222990 [Eh]
  Correction G             -1.099 [kcal/mol]       -4.599 [kJ/mol]      -0.00175156 [Eh]
  Total G, Free enthalpy at  298.15 [K]                               -188.57379983 [Eh]

    Psi4 stopped on: Friday, 22 March 2019 09:41AM
    Psi4 wall time for execution: 0:01:22.04

*** Psi4 exiting successfully. Buy a developer a beer!
