
    -----------------------------------------------------------------------
          Psi4: An Open-Source Ab Initio Electronic Structure Package
                               Psi4 1.2.1 release

                         Git: Rev {HEAD} 406f4de 


    R. M. Parrish, L. A. Burns, D. G. A. Smith, A. C. Simmonett,
    A. E. DePrince III, E. G. Hohenstein, U. Bozkaya, A. Yu. Sokolov,
    R. Di Remigio, R. M. Richard, J. F. Gonthier, A. M. James,
    H. R. McAlexander, A. Kumar, M. Saitow, X. Wang, B. P. Pritchard,
    P. Verma, H. F. Schaefer III, K. Patkowski, R. A. King, E. F. Valeev,
    F. A. Evangelista, J. M. Turney, T. D. Crawford, and C. D. Sherrill,
    J. Chem. Theory Comput. 13(7) pp 3185--3197 (2017).
    (doi: 10.1021/acs.jctc.7b00174)


                         Additional Contributions by
    P. Kraus, H. Kruse, M. H. Lechner, M. C. Schieber, and R. A. Shaw

    -----------------------------------------------------------------------


    Psi4 started on: Monday, 21 January 2019 04:04PM

    Process ID: 20162
    Host:       localhost.localdomain
    PSIDATADIR: /root/psi4conda/share/psi4
    Memory:     500.0 MiB
    Threads:    1
    
  ==> Input File <==

--------------------------------------------------------------------------
molecule{
0 1
C 0.0250915777 -0.1286928485 -1.6797941193

O -1.0640518750 -0.2708458835 -2.3671461743

I 1.7676392233 0.4239698866 0.7744794270

I -1.7497022864 0.6065931404 0.7568108668

H 0.9771788562 2.9101588202 -1.8188499572

C 1.2104296737 1.8677450067 -1.6144971799

H 1.4009212770 1.3273640421 -2.5445434213

H 2.0684812003 1.8026701985 -0.9482891645

O 0.0824054410 1.2986775512 -0.9347840067

H -0.8158248671 0.9466707559 -1.5217095565

C -0.0315099183 -0.3544175389 -0.1654415176

I -0.1203043283 -2.4863907733 0.2505893474

H 0.9845976699 -0.5102986296 -2.0702818945  
}

basis {
  assign 6-311ppgss
  assign I def2-tzvpp
}

set{
   freeze_core True
   opt_type ts
}


set_num_threads(32)
optimize('m06-2x')
--------------------------------------------------------------------------
  Threads set to 32 by Python driver.
gradient() will perform analytic gradient computation.

*** tstart() called on localhost.localdomain
*** at Mon Jan 21 16:04:53 2019

   => Loading Basis Set <=

    Name: ANONYMOUS4EC53688
    Role: ORBITAL
    Keyword: BASIS
    atoms 1, 6, 11       entry C          line   119 file /root/psi4conda/share/psi4/basis/6-311ppgss.gbs 
    atoms 2, 9           entry O          line   161 file /root/psi4conda/share/psi4/basis/6-311ppgss.gbs 
    atoms 3-4, 12        entry I          line  2322 (ECP: line  3601) file /root/psi4conda/share/psi4/basis/def2-tzvpp.gbs 
    atoms 5, 7-8, 10, 13 entry H          line    42 file /root/psi4conda/share/psi4/basis/6-311ppgss.gbs 

    !!!  WARNING: ECP capability is in beta. Please check occupations closely.  !!!


         ---------------------------------------------------------
                                   SCF
            by Justin Turney, Rob Parrish, Andy Simmonett
                             and Daniel Smith
                              RKS Reference
                       32 Threads,    500 MiB Core
         ---------------------------------------------------------

  ==> Geometry <==

    Molecular point group: c1
    Full point group: C1

    Geometry (in Angstrom), charge = 0, multiplicity = 1:

       Center              X                  Y                   Z               Mass       
    ------------   -----------------  -----------------  -----------------  -----------------
         C            0.046232705086     0.191242254673    -1.950485756344    12.000000000000
         O           -1.042910747614     0.049089219673    -2.637837811344    15.994914619560
         I            1.788780350686     0.743904989773     0.503787789956   126.904472681000
         I           -1.728561159014     0.926528243573     0.486119229756   126.904472681000
         H            0.998319983586     3.230093923373    -2.089541594244     1.007825032070
         C            1.231570801086     2.187680109873    -1.885188816944    12.000000000000
         H            1.422062404386     1.647299145273    -2.815235058344     1.007825032070
         H            2.089622327686     2.122605301673    -1.218980801544     1.007825032070
         O            0.103546568386     1.618612654373    -1.205475643744    15.994914619560
         H           -0.794683739714     1.266605859073    -1.792401193544     1.007825032070
         C           -0.010368790914    -0.034482435727    -0.436133154644    12.000000000000
         I           -0.099163200914    -2.166455670127    -0.020102289644   126.904472681000
         H            1.005738797286    -0.190363526427    -2.340973531544     1.007825032070

  Running in c1 symmetry.

  Rotational constants: A =      0.01499  B =      0.01381  C =      0.00977 [cm^-1]
  Rotational constants: A =    449.32598  B =    414.10298  C =    292.84078 [MHz]
  Nuclear repulsion =  957.066861479451404

  Charge       = 0
  Multiplicity = 1
  Electrons    = 114
  Nalpha       = 57
  Nbeta        = 57

  ==> Algorithm <==

  SCF Algorithm Type is DF.
  DIIS enabled.
  MOM disabled.
  Fractional occupation disabled.
  Guess Type is SAD.
  Energy threshold   = 1.00e-08
  Density threshold  = 1.00e-08
  Integral threshold = 0.00e+00

  ==> Primary Basis <==

  Basis Set: ANONYMOUS4EC53688
    Blend: 6-311PPGSS + DEF2-TZVPP
    Number of shells: 123
    Number of basis function: 295
    Number of Cartesian functions: 327
    Spherical Harmonics?: true
    Max angular momentum: 3

  Core potential: ANONYMOUS4EC53688
    Number of shells: 12
    Number of ECP primitives: 87
    Number of ECP core electrons: 84
    Max angular momentum: 3

  ==> DFT Potential <==

   => Composite Functional: M06-2X <= 

    Hybrid M06-2X Meta-GGA XC Functional

    Y. Zhao and D. G. Truhlar,  Theor. Chem. Acc., 120, 215, 2008


    Deriv               =              1
    GGA                 =           TRUE
    Meta                =           TRUE

    Exchange Hybrid     =           TRUE
    MP2 Hybrid          =          FALSE

   => Exchange Functionals <=

    1.0000   XC_HYB_MGGA_X_M06_2X

   => Exact (HF) Exchange <=

    0.5400               HF 

   => Correlation Functionals <=

    1.0000   XC_MGGA_C_M06_2X

   => Molecular Quadrature <=

    Radial Scheme       =       TREUTLER
    Pruning Scheme      =           FLAT
    Nuclear Scheme      =       TREUTLER

    BS radius alpha     =              1
    Pruning alpha       =              1
    Radial Points       =             75
    Spherical Points    =            302
    Total Points        =         293580
    Total Blocks        =           2259
    Max Points          =            256
    Max Functions       =            261

   => Loading Basis Set <=

    Name: (ANONYMOUS4EC53688 AUX)
    Role: JKFIT
    Keyword: DF_BASIS_SCF
    atoms 1, 6, 11       entry C          line   162 file /root/psi4conda/share/psi4/basis/aug-cc-pvtz-jkfit.gbs 
    atoms 2, 9           entry O          line   286 file /root/psi4conda/share/psi4/basis/aug-cc-pvtz-jkfit.gbs 
    atoms 3-4, 12        entry I          line  4985 file /root/psi4conda/share/psi4/basis/def2-tzvpp-jkfit.gbs 
    atoms 5, 7-8, 10, 13 entry H          line    70 file /root/psi4conda/share/psi4/basis/aug-cc-pvtz-jkfit.gbs 

  ==> Pre-Iterations <==

   -------------------------------------------------------
    Irrep   Nso     Nmo     Nalpha   Nbeta   Ndocc  Nsocc
   -------------------------------------------------------
     A        295     295       0       0       0       0
   -------------------------------------------------------
    Total     295     295      57      57      57       0
   -------------------------------------------------------

  ==> Integral Setup <==

  ==> DiskDFJK: Density-Fitted J/K Matrices <==

    J tasked:                  Yes
    K tasked:                  Yes
    wK tasked:                  No
    OpenMP threads:             32
    Integrals threads:          32
    Memory (MB):               375
    Algorithm:                Disk
    Integral Cache:           NONE
    Schwarz Cutoff:          1E-12
    Fitting Condition:       1E-12

   => Auxiliary Basis Set <=

  Basis Set: (ANONYMOUS4EC53688 AUX)
    Blend: AUG-CC-PVTZ-JKFIT + DEF2-TZVPP-JKFIT
    Number of shells: 358
    Number of basis function: 1404
    Number of Cartesian functions: 1857
    Spherical Harmonics?: true
    Max angular momentum: 5

  Minimum eigenvalue in the overlap matrix is 4.1705775147E-05.
  Using Symmetric Orthogonalization.

  SCF Guess: Superposition of Atomic Densities via on-the-fly atomic UHF.

  ==> Iterations <==

                           Total Energy        Delta E     RMS |[F,P]|

   @DF-RKS iter   0:   685.16630336304206    6.85166e+02   8.48762e-01 
   @DF-RKS iter   1:  -563.63182853124340   -1.24880e+03   5.35886e-01 
   @DF-RKS iter   2:  -621.32799694508810   -5.76962e+01   3.98608e-01 DIIS
   @DF-RKS iter   3:  -923.27734823744606   -3.01949e+02   2.84880e-01 DIIS
   @DF-RKS iter   4:  -863.59389909904098    5.96834e+01   4.26456e-01 DIIS
   @DF-RKS iter   5: -1113.93517239892162   -2.50341e+02   1.41824e-01 DIIS
   @DF-RKS iter   6: -1105.71971624379967    8.21546e+00   1.41570e-01 DIIS
   @DF-RKS iter   7: -1144.40821309648663   -3.86885e+01   8.63906e-02 DIIS
   @DF-RKS iter   8: -1142.70980573322004    1.69841e+00   9.23283e-02 DIIS
   @DF-RKS iter   9: -1157.64840574206755   -1.49386e+01   4.01528e-02 DIIS
   @DF-RKS iter  10: -1159.89002821054646   -2.24162e+00   1.76750e-02 DIIS
   @DF-RKS iter  11: -1160.22192318161342   -3.31895e-01   1.04055e-02 DIIS
   @DF-RKS iter  12: -1160.33336203679869   -1.11439e-01   4.31619e-03 DIIS
   @DF-RKS iter  13: -1160.35697400182266   -2.36120e-02   1.10675e-03 DIIS
   @DF-RKS iter  14: -1160.35822117614634   -1.24717e-03   5.04212e-04 DIIS
   @DF-RKS iter  15: -1160.35858158346900   -3.60407e-04   1.05275e-04 DIIS
   @DF-RKS iter  16: -1160.35860219525307   -2.06118e-05   4.74979e-05 DIIS
   @DF-RKS iter  17: -1160.35860645472076   -4.25947e-06   2.50233e-05 DIIS
   @DF-RKS iter  18: -1160.35860762376910   -1.16905e-06   1.07801e-05 DIIS
   @DF-RKS iter  19: -1160.35860785383147   -2.30062e-07   2.06727e-06 DIIS
   @DF-RKS iter  20: -1160.35860786380022   -9.96874e-09   8.32101e-07 DIIS
   @DF-RKS iter  21: -1160.35860786604599   -2.24577e-09   3.73782e-07 DIIS
   @DF-RKS iter  22: -1160.35860786653620   -4.90218e-10   1.35667e-07 DIIS
   @DF-RKS iter  23: -1160.35860786658031   -4.41105e-11   7.83299e-08 DIIS
   @DF-RKS iter  24: -1160.35860786658668   -6.36646e-12   1.71287e-08 DIIS
   @DF-RKS iter  25: -1160.35860786658827   -1.59162e-12   1.00127e-08 DIIS
   @DF-RKS iter  26: -1160.35860786658873   -4.54747e-13   5.24247e-09 DIIS

  ==> Post-Iterations <==

    Orbital Energies [Eh]
    ---------------------

    Doubly Occupied:                                                      

       1A    -19.737792     2A    -19.638534     3A    -10.710353  
       4A    -10.689929     5A    -10.627424     6A     -7.119934  
       7A     -7.118893     8A     -7.095229     9A     -5.113922  
      10A     -5.113697    11A     -5.102805    12A     -5.102333  
      13A     -5.101335    14A     -5.100695    15A     -5.088254  
      16A     -5.078434    17A     -5.078087    18A     -2.082388  
      19A     -2.081769    20A     -2.078204    21A     -2.077733  
      22A     -2.077398    23A     -2.076737    24A     -2.068574  
      25A     -2.068436    26A     -2.066394    27A     -2.066279  
      28A     -2.056569    29A     -2.052710    30A     -2.052402  
      31A     -2.044107    32A     -2.044100    33A     -1.310426  
      34A     -1.164395    35A     -0.931837    36A     -0.870128  
      37A     -0.809852    38A     -0.793436    39A     -0.771614  
      40A     -0.698477    41A     -0.673569    42A     -0.610186  
      43A     -0.591280    44A     -0.565280    45A     -0.525201  
      46A     -0.502180    47A     -0.497050    48A     -0.438473  
      49A     -0.407627    50A     -0.381226    51A     -0.353270  
      52A     -0.351089    53A     -0.334792    54A     -0.322710  
      55A     -0.314015    56A     -0.303600    57A     -0.296061  

    Virtual:                                                              

      58A     -0.070138    59A     -0.025021    60A     -0.011485  
      61A      0.006565    62A      0.013426    63A      0.019755  
      64A      0.029311    65A      0.034279    66A      0.047309  
      67A      0.064319    68A      0.076142    69A      0.078291  
      70A      0.085380    71A      0.103346    72A      0.109273  
      73A      0.110405    74A      0.116130    75A      0.125883  
      76A      0.127542    77A      0.128194    78A      0.141075  
      79A      0.160120    80A      0.164033    81A      0.170103  
      82A      0.178479    83A      0.185473    84A      0.192670  
      85A      0.194457    86A      0.216562    87A      0.220281  
      88A      0.221820    89A      0.230222    90A      0.233275  
      91A      0.245928    92A      0.249875    93A      0.262203  
      94A      0.263786    95A      0.266748    96A      0.284019  
      97A      0.300623    98A      0.304421    99A      0.309796  
     100A      0.323838   101A      0.330048   102A      0.339606  
     103A      0.343608   104A      0.345345   105A      0.356928  
     106A      0.375090   107A      0.382792   108A      0.390965  
     109A      0.398461   110A      0.404106   111A      0.418780  
     112A      0.431949   113A      0.433046   114A      0.463027  
     115A      0.474087   116A      0.476796   117A      0.494326  
     118A      0.502727   119A      0.512308   120A      0.521852  
     121A      0.543365   122A      0.584692   123A      0.597861  
     124A      0.614008   125A      0.636775   126A      0.662932  
     127A      0.672630   128A      0.683248   129A      0.694743  
     130A      0.696751   131A      0.705854   132A      0.730673  
     133A      0.742573   134A      0.751988   135A      0.783494  
     136A      0.829994   137A      0.837758   138A      0.858182  
     139A      0.872674   140A      0.893666   141A      0.913604  
     142A      0.924329   143A      0.927332   144A      0.933358  
     145A      0.940530   146A      0.943393   147A      0.949876  
     148A      0.952914   149A      0.958945   150A      0.967782  
     151A      0.976412   152A      0.989532   153A      1.002802  
     154A      1.013901   155A      1.026020   156A      1.078822  
     157A      1.093319   158A      1.128358   159A      1.156275  
     160A      1.166251   161A      1.191341   162A      1.207119  
     163A      1.221497   164A      1.223311   165A      1.236865  
     166A      1.248288   167A      1.260458   168A      1.275301  
     169A      1.317164   170A      1.324302   171A      1.332503  
     172A      1.353399   173A      1.378762   174A      1.399493  
     175A      1.412154   176A      1.434498   177A      1.452412  
     178A      1.461145   179A      1.472126   180A      1.482542  
     181A      1.490930   182A      1.495461   183A      1.519586  
     184A      1.521163   185A      1.533909   186A      1.541741  
     187A      1.551448   188A      1.565228   189A      1.581502  
     190A      1.586578   191A      1.605832   192A      1.611697  
     193A      1.622272   194A      1.644291   195A      1.656148  
     196A      1.675489   197A      1.685943   198A      1.697873  
     199A      1.718152   200A      1.729607   201A      1.744292  
     202A      1.764114   203A      1.784644   204A      1.795641  
     205A      1.824249   206A      1.865164   207A      1.937005  
     208A      1.979469   209A      1.997637   210A      2.011627  
     211A      2.049845   212A      2.083354   213A      2.127147  
     214A      2.194566   215A      2.225769   216A      2.280198  
     217A      2.332904   218A      2.452555   219A      2.517717  
     220A      2.549991   221A      2.580126   222A      2.628382  
     223A      2.639066   224A      2.742237   225A      2.801240  
     226A      2.824396   227A      2.870586   228A      2.885387  
     229A      2.938869   230A      2.978543   231A      3.020709  
     232A      3.031081   233A      3.068777   234A      3.147555  
     235A      3.153685   236A      3.155748   237A      3.159944  
     238A      3.167059   239A      3.169411   240A      3.171764  
     241A      3.174961   242A      3.189635   243A      3.200011  
     244A      3.201276   245A      3.212939   246A      3.238679  
     247A      3.248600   248A      3.256343   249A      3.281279  
     250A      3.294015   251A      3.321527   252A      3.343994  
     253A      3.365706   254A      3.385217   255A      3.404172  
     256A      3.466042   257A      3.489995   258A      3.579412  
     259A      3.593871   260A      3.666720   261A      3.751888  
     262A      3.834471   263A      3.877769   264A      4.009563  
     265A      4.141348   266A      4.223200   267A      4.422714  
     268A      4.462558   269A      4.503177   270A      5.216852  
     271A      5.235390   272A      5.331090   273A      5.401359  
     274A      5.626389   275A      5.862849   276A     23.721303  
     277A     23.845329   278A     23.998394   279A     34.507664  
     280A     34.524003   281A     34.535871   282A     34.556004  
     283A     34.564195   284A     34.615705   285A     34.724193  
     286A     34.736709   287A     34.785981   288A     42.840983  
     289A     42.877879   290A     42.900054   291A     49.999275  
     292A     50.091604   293A    117.552154   294A    117.558451  
     295A    117.562748  

    Final Occupation by Irrep:
              A 
    DOCC [    57 ]

  Energy converged.

  @DF-RKS Final Energy: -1160.35860786658873

   => Energetics <=

    Nuclear Repulsion Energy =            957.0668614794514042
    One-Electron Energy =               -3826.0246090681375790
    Two-Electron Energy =                1757.8217556220990900
    DFT Exchange-Correlation Energy =     -49.2226159000015286
    Empirical Dispersion Energy =           0.0000000000000000
    VV10 Nonlocal Energy =                  0.0000000000000000
    Total Energy =                      -1160.3586078665887271



Properties will be evaluated at   0.000000,   0.000000,   0.000000 [a0]

Properties computed using the SCF density matrix

  Nuclear Dipole Moment: [e a0]
     X:     7.2512      Y:    43.6223      Z:   -80.1043

  Electronic Dipole Moment: [e a0]
     X:    -6.1411      Y:   -42.1493      Z:    79.7455

  Dipole Moment: [e a0]
     X:     1.1101      Y:     1.4730      Z:    -0.3588     Total:     1.8790

  Dipole Moment: [D]
     X:     2.8215      Y:     3.7439      Z:    -0.9121     Total:     4.7759


*** tstop() called on localhost.localdomain at Mon Jan 21 16:05:32 2019
Module time:
	user time   =    1023.08 seconds =      17.05 minutes
	system time =      39.48 seconds =       0.66 minutes
	total time  =         39 seconds =       0.65 minutes
Total time:
	user time   =    1023.08 seconds =      17.05 minutes
	system time =      39.48 seconds =       0.66 minutes
	total time  =         39 seconds =       0.65 minutes

*** tstart() called on localhost.localdomain
*** at Mon Jan 21 16:05:32 2019


         ------------------------------------------------------------
                                   SCF GRAD                          
                          Rob Parrish, Justin Turney,                
                       Andy Simmonett, and Alex Sokolov              
         ------------------------------------------------------------

  ==> Geometry <==

    Molecular point group: c1
    Full point group: C1

    Geometry (in Angstrom), charge = 0, multiplicity = 1:

       Center              X                  Y                   Z               Mass       
    ------------   -----------------  -----------------  -----------------  -----------------
         C            0.046232705086     0.191242254673    -1.950485756344    12.000000000000
         O           -1.042910747614     0.049089219673    -2.637837811344    15.994914619560
         I            1.788780350686     0.743904989773     0.503787789956   126.904472681000
         I           -1.728561159014     0.926528243573     0.486119229756   126.904472681000
         H            0.998319983586     3.230093923373    -2.089541594244     1.007825032070
         C            1.231570801086     2.187680109873    -1.885188816944    12.000000000000
         H            1.422062404386     1.647299145273    -2.815235058344     1.007825032070
         H            2.089622327686     2.122605301673    -1.218980801544     1.007825032070
         O            0.103546568386     1.618612654373    -1.205475643744    15.994914619560
         H           -0.794683739714     1.266605859073    -1.792401193544     1.007825032070
         C           -0.010368790914    -0.034482435727    -0.436133154644    12.000000000000
         I           -0.099163200914    -2.166455670127    -0.020102289644   126.904472681000
         H            1.005738797286    -0.190363526427    -2.340973531544     1.007825032070

  Nuclear repulsion =  957.066861479451404

  ==> Basis Set <==

  Basis Set: ANONYMOUS4EC53688
    Blend: 6-311PPGSS + DEF2-TZVPP
    Number of shells: 123
    Number of basis function: 295
    Number of Cartesian functions: 327
    Spherical Harmonics?: true
    Max angular momentum: 3

  Core potential: ANONYMOUS4EC53688
    Number of shells: 12
    Number of ECP primitives: 87
    Number of ECP core electrons: 84
    Max angular momentum: 3

  ==> DFJKGrad: Density-Fitted SCF Gradients <==

    Gradient:                    1
    J tasked:                  Yes
    K tasked:                  Yes
    wK tasked:                  No
    OpenMP threads:             32
    Integrals threads:          32
    Memory (MB):               375
    Schwarz Cutoff:          0E+00
    Fitting Condition:       1E-12

   => Auxiliary Basis Set <=

  Basis Set: (ANONYMOUS4EC53688 AUX)
    Blend: AUG-CC-PVTZ-JKFIT + DEF2-TZVPP-JKFIT
    Number of shells: 358
    Number of basis function: 1404
    Number of Cartesian functions: 1857
    Spherical Harmonics?: true
    Max angular momentum: 5

  ==> DFT Potential <==

   => Composite Functional: M06-2X <= 

    Hybrid M06-2X Meta-GGA XC Functional

    Y. Zhao and D. G. Truhlar,  Theor. Chem. Acc., 120, 215, 2008


    Deriv               =              1
    GGA                 =           TRUE
    Meta                =           TRUE

    Exchange Hybrid     =           TRUE
    MP2 Hybrid          =          FALSE

   => Exchange Functionals <=

    1.0000   XC_HYB_MGGA_X_M06_2X

   => Exact (HF) Exchange <=

    0.5400               HF 

   => Correlation Functionals <=

    1.0000   XC_MGGA_C_M06_2X

   => Molecular Quadrature <=

    Radial Scheme       =       TREUTLER
    Pruning Scheme      =           FLAT
    Nuclear Scheme      =       TREUTLER

    BS radius alpha     =              1
    Pruning alpha       =              1
    Radial Points       =             75
    Spherical Points    =            302
    Total Points        =         293580
    Total Blocks        =           2259
    Max Points          =            256
    Max Functions       =            261


  -Total Gradient:
     Atom            X                  Y                   Z
    ------   -----------------  -----------------  -----------------
       1        0.028194982080     0.117099819529    -0.019522720996
       2       -0.038354484838    -0.039564380768    -0.026346902781
       3        0.003186438276     0.043332869773    -0.036314364981
       4       -0.003362826336     0.020939251973    -0.007004802060
       5       -0.001023482134    -0.002462482918     0.001606133975
       6       -0.001803909804    -0.044905030011     0.025139938298
       7       -0.002112072825    -0.009660929827    -0.000142917853
       8        0.005792077679    -0.008497399424     0.017279954461
       9       -0.004864222584    -0.094149684516     0.092955018708
      10        0.016534539731    -0.053266233423     0.019509019912
      11       -0.003274753017     0.093247363129    -0.071808329465
      12        0.000194522735    -0.004842687429     0.001217047221
      13        0.000887798467    -0.017342206756     0.004002535138


*** tstop() called on localhost.localdomain at Mon Jan 21 16:05:40 2019
Module time:
	user time   =     175.49 seconds =       2.92 minutes
	system time =       5.84 seconds =       0.10 minutes
	total time  =          8 seconds =       0.13 minutes
Total time:
	user time   =    1198.62 seconds =      19.98 minutes
	system time =      45.33 seconds =       0.76 minutes
	total time  =         47 seconds =       0.78 minutes


  ==> Adding ECP gradient terms (computed numerically) <==
