
    -----------------------------------------------------------------------
          Psi4: An Open-Source Ab Initio Electronic Structure Package
                               Psi4 1.2.1 release

                         Git: Rev {HEAD} 406f4de 


    R. M. Parrish, L. A. Burns, D. G. A. Smith, A. C. Simmonett,
    A. E. DePrince III, E. G. Hohenstein, U. Bozkaya, A. Yu. Sokolov,
    R. Di Remigio, R. M. Richard, J. F. Gonthier, A. M. James,
    H. R. McAlexander, A. Kumar, M. Saitow, X. Wang, B. P. Pritchard,
    P. Verma, H. F. Schaefer III, K. Patkowski, R. A. King, E. F. Valeev,
    F. A. Evangelista, J. M. Turney, T. D. Crawford, and C. D. Sherrill,
    J. Chem. Theory Comput. 13(7) pp 3185--3197 (2017).
    (doi: 10.1021/acs.jctc.7b00174)


                         Additional Contributions by
    P. Kraus, H. Kruse, M. H. Lechner, M. C. Schieber, and R. A. Shaw

    -----------------------------------------------------------------------


    Psi4 started on: Thursday, 17 January 2019 04:29PM

    Process ID: 15889
    Host:       localhost.localdomain
    PSIDATADIR: /root/psi4conda/share/psi4
    Memory:     500.0 MiB
    Threads:    1
    
  ==> Input File <==

--------------------------------------------------------------------------
molecule{
0 1
    C            0.006693528323    -0.279637224262    -0.800657894312
    O           -1.082449924363    -0.421790259210    -1.488009949304
   Cl            1.062802919574    -0.023956486458     1.295002973653
   Cl           -1.097540296949     0.080594509799     1.276019061556
    H            0.977178856231     2.910158820172    -1.818849957232
    C            1.210429673681     1.867745006711    -1.614497179894
    H            1.400921277045     1.327364042081    -2.544543421282
    H            2.068481200267     1.802670198536    -0.948289164455
    O            0.082405440961     1.298677551225    -0.934784006658
    H           -0.815824867107     0.946670755852    -1.521709556490
    C           -0.049907967661    -0.505361914600     0.713694707408
   Cl           -0.104426112788    -1.814354521104     0.969130055961
    H            0.966199620589    -0.661243005328    -1.191145669509

}

set{
   basis 6-311++G(d,p)
   freeze_core True
   opt_type ts
}


set_num_threads(16)
optimize('m06-2x')
--------------------------------------------------------------------------
  Threads set to 16 by Python driver.
gradient() will perform analytic gradient computation.

*** tstart() called on localhost.localdomain
*** at Thu Jan 17 16:29:42 2019

   => Loading Basis Set <=

    Name: 6-311++G(D,P)
    Role: ORBITAL
    Keyword: BASIS
    atoms 1, 6, 11       entry C          line   119 file /root/psi4conda/share/psi4/basis/6-311ppg_d_p_.gbs 
    atoms 2, 9           entry O          line   161 file /root/psi4conda/share/psi4/basis/6-311ppg_d_p_.gbs 
    atoms 3-4, 12        entry CL         line   458 file /root/psi4conda/share/psi4/basis/6-311ppg_d_p_.gbs 
    atoms 5, 7-8, 10, 13 entry H          line    42 file /root/psi4conda/share/psi4/basis/6-311ppg_d_p_.gbs 


         ---------------------------------------------------------
                                   SCF
            by Justin Turney, Rob Parrish, Andy Simmonett
                             and Daniel Smith
                              RKS Reference
                       16 Threads,    500 MiB Core
         ---------------------------------------------------------

  ==> Geometry <==

    Molecular point group: c1
    Full point group: C1

    Geometry (in Angstrom), charge = 0, multiplicity = 1:

       Center              X                  Y                   Z               Mass       
    ------------   -----------------  -----------------  -----------------  -----------------
         C            0.019184028142    -0.121874886080    -1.118401211925    12.000000000000
         O           -1.069959424544    -0.264027921028    -1.805753266917    15.994914619560
         CL           1.075293419393     0.133805851724     0.977259656040    34.968852682000
         CL          -1.085049797130     0.238356847981     0.958275743943    34.968852682000
         H            0.989669356050     3.067921158354    -2.136593274845     1.007825032070
         C            1.222920173500     2.025507344893    -1.932240497507    12.000000000000
         H            1.413411776864     1.485126380263    -2.862286738895     1.007825032070
         H            2.080971700086     1.960432536718    -1.266032482068     1.007825032070
         O            0.094895940780     1.456439889407    -1.252527324271    15.994914619560
         H           -0.803334367288     1.104433094034    -1.839452874103     1.007825032070
         C           -0.037417467842    -0.347599576418     0.395951389795    12.000000000000
         CL          -0.091935612969    -1.656592182922     0.651386738348    34.968852682000
         H            0.978690120408    -0.503480667146    -1.508888987122     1.007825032070

  Running in c1 symmetry.

  Rotational constants: A =      0.07297  B =      0.03972  C =      0.03503 [cm^-1]
  Rotational constants: A =   2187.68669  B =   1190.82096  C =   1050.19098 [MHz]
  Nuclear repulsion =  789.861521344552330

  Charge       = 0
  Multiplicity = 1
  Electrons    = 90
  Nalpha       = 45
  Nbeta        = 45

  ==> Algorithm <==

  SCF Algorithm Type is DF.
  DIIS enabled.
  MOM disabled.
  Fractional occupation disabled.
  Guess Type is SAD.
  Energy threshold   = 1.00e-08
  Density threshold  = 1.00e-08
  Integral threshold = 0.00e+00

  ==> Primary Basis <==

  Basis Set: 6-311++G(D,P)
    Blend: 6-311++G(D,P)
    Number of shells: 117
    Number of basis function: 235
    Number of Cartesian functions: 243
    Spherical Harmonics?: true
    Max angular momentum: 2

  ==> DFT Potential <==

   => Composite Functional: M06-2X <= 

    Hybrid M06-2X Meta-GGA XC Functional

    Y. Zhao and D. G. Truhlar,  Theor. Chem. Acc., 120, 215, 2008


    Deriv               =              1
    GGA                 =           TRUE
    Meta                =           TRUE

    Exchange Hybrid     =           TRUE
    MP2 Hybrid          =          FALSE

   => Exchange Functionals <=

    1.0000   XC_HYB_MGGA_X_M06_2X

   => Exact (HF) Exchange <=

    0.5400               HF 

   => Correlation Functionals <=

    1.0000   XC_MGGA_C_M06_2X

   => Molecular Quadrature <=

    Radial Scheme       =       TREUTLER
    Pruning Scheme      =           FLAT
    Nuclear Scheme      =       TREUTLER

    BS radius alpha     =              1
    Pruning alpha       =              1
    Radial Points       =             75
    Spherical Points    =            302
    Total Points        =         294158
    Total Blocks        =           2281
    Max Points          =            256
    Max Functions       =            211

   => Loading Basis Set <=

    Name: (6-311++G(D,P) AUX)
    Role: JKFIT
    Keyword: DF_BASIS_SCF
    atoms 1, 6, 11       entry C          line   162 file /root/psi4conda/share/psi4/basis/aug-cc-pvtz-jkfit.gbs 
    atoms 2, 9           entry O          line   286 file /root/psi4conda/share/psi4/basis/aug-cc-pvtz-jkfit.gbs 
    atoms 3-4, 12        entry CL         line   816 file /root/psi4conda/share/psi4/basis/aug-cc-pvtz-jkfit.gbs 
    atoms 5, 7-8, 10, 13 entry H          line    70 file /root/psi4conda/share/psi4/basis/aug-cc-pvtz-jkfit.gbs 

  ==> Pre-Iterations <==

   -------------------------------------------------------
    Irrep   Nso     Nmo     Nalpha   Nbeta   Ndocc  Nsocc
   -------------------------------------------------------
     A        235     235       0       0       0       0
   -------------------------------------------------------
    Total     235     235      45      45      45       0
   -------------------------------------------------------

  ==> Integral Setup <==

  ==> DiskDFJK: Density-Fitted J/K Matrices <==

    J tasked:                  Yes
    K tasked:                  Yes
    wK tasked:                  No
    OpenMP threads:             16
    Integrals threads:          16
    Memory (MB):               375
    Algorithm:                Core
    Integral Cache:           NONE
    Schwarz Cutoff:          1E-12
    Fitting Condition:       1E-12

   => Auxiliary Basis Set <=

  Basis Set: (6-311++G(D,P) AUX)
    Blend: AUG-CC-PVTZ-JKFIT
    Number of shells: 346
    Number of basis function: 1188
    Number of Cartesian functions: 1470
    Spherical Harmonics?: true
    Max angular momentum: 4

  Minimum eigenvalue in the overlap matrix is 3.0281288459E-06.
  Using Symmetric Orthogonalization.

  SCF Guess: Superposition of Atomic Densities via on-the-fly atomic UHF.

  ==> Iterations <==

                           Total Energy        Delta E     RMS |[F,P]|

   @DF-RKS iter   0: -1653.12348909399748   -1.65312e+03   1.29113e-01 
   @DF-RKS iter   1: -1647.48006763647436    5.64342e+00   8.23329e-03 
   @DF-RKS iter   2: -1647.50770412667862   -2.76365e-02   7.62054e-03 DIIS
   @DF-RKS iter   3: -1647.57939655336781   -7.16924e-02   1.83391e-03 DIIS
   @DF-RKS iter   4: -1647.58361678440519   -4.22023e-03   5.08093e-04 DIIS
   @DF-RKS iter   5: -1647.58397432869447   -3.57544e-04   2.63833e-04 DIIS
   @DF-RKS iter   6: -1647.58407656870122   -1.02240e-04   4.05326e-05 DIIS
   @DF-RKS iter   7: -1647.58407921366256   -2.64496e-06   2.00740e-05 DIIS
   @DF-RKS iter   8: -1647.58407988055887   -6.66896e-07   5.01947e-06 DIIS
   @DF-RKS iter   9: -1647.58407993404489   -5.34860e-08   1.80521e-06 DIIS
   @DF-RKS iter  10: -1647.58407993936180   -5.31691e-09   4.87649e-07 DIIS
   @DF-RKS iter  11: -1647.58407993985406   -4.92264e-10   1.36966e-07 DIIS
   @DF-RKS iter  12: -1647.58407993988817   -3.41061e-11   4.21879e-08 DIIS
   @DF-RKS iter  13: -1647.58407993989931   -1.11413e-11   7.94229e-09 DIIS

  ==> Post-Iterations <==

    Orbital Energies [Eh]
    ---------------------

    Doubly Occupied:                                                      

       1A   -102.666658     2A   -102.662679     3A   -102.655363  
       4A    -19.712618     5A    -19.593580     6A    -10.673825  
       7A    -10.650173     8A    -10.627633     9A     -9.832751  
      10A     -9.829352    11A     -9.822967    12A     -7.558577  
      13A     -7.555316    14A     -7.549076    15A     -7.548434  
      16A     -7.548029    17A     -7.544909    18A     -7.544435  
      19A     -7.538376    20A     -7.537969    21A     -1.347764  
      22A     -1.253557    23A     -1.125718    24A     -1.055903  
      25A     -1.052625    26A     -0.857878    27A     -0.828164  
      28A     -0.686460    29A     -0.675385    30A     -0.652850  
      31A     -0.635304    32A     -0.633299    33A     -0.588518  
      34A     -0.559976    35A     -0.520685    36A     -0.485627  
      37A     -0.479839    38A     -0.465335    39A     -0.453792  
      40A     -0.413934    41A     -0.371715    42A     -0.355841  
      43A     -0.347749    44A     -0.322432    45A     -0.307262  

    Virtual:                                                              

      46A     -0.011363    47A      0.010254    48A      0.017297  
      49A      0.020808    50A      0.040714    51A      0.043334  
      52A      0.052625    53A      0.057362    54A      0.063918  
      55A      0.073249    56A      0.081932    57A      0.086867  
      58A      0.093613    59A      0.103288    60A      0.106302  
      61A      0.111788    62A      0.118568    63A      0.123039  
      64A      0.127544    65A      0.134598    66A      0.136969  
      67A      0.142775    68A      0.148498    69A      0.151602  
      70A      0.166864    71A      0.176643    72A      0.181370  
      73A      0.186291    74A      0.192102    75A      0.204775  
      76A      0.206981    77A      0.219675    78A      0.225834  
      79A      0.232205    80A      0.242291    81A      0.259277  
      82A      0.264543    83A      0.266702    84A      0.283833  
      85A      0.293534    86A      0.308313    87A      0.321688  
      88A      0.326059    89A      0.347006    90A      0.354038  
      91A      0.355432    92A      0.368339    93A      0.394902  
      94A      0.407266    95A      0.413203    96A      0.428718  
      97A      0.439406    98A      0.460143    99A      0.468866  
     100A      0.481592   101A      0.496446   102A      0.501545  
     103A      0.530335   104A      0.550537   105A      0.560695  
     106A      0.580041   107A      0.589735   108A      0.603425  
     109A      0.608861   110A      0.620468   111A      0.627540  
     112A      0.652110   113A      0.673314   114A      0.689752  
     115A      0.698280   116A      0.719645   117A      0.735575  
     118A      0.760366   119A      0.814612   120A      0.883140  
     121A      0.904818   122A      0.928737   123A      0.931619  
     124A      0.941626   125A      0.961774   126A      0.995111  
     127A      1.025004   128A      1.044348   129A      1.054629  
     130A      1.078937   131A      1.093892   132A      1.113281  
     133A      1.146123   134A      1.177295   135A      1.204587  
     136A      1.225299   137A      1.246601   138A      1.260899  
     139A      1.271210   140A      1.298860   141A      1.344869  
     142A      1.358714   143A      1.382477   144A      1.398890  
     145A      1.421565   146A      1.454126   147A      1.473952  
     148A      1.504116   149A      1.561103   150A      1.575054  
     151A      1.591215   152A      1.626993   153A      1.649416  
     154A      1.669922   155A      1.707396   156A      1.723078  
     157A      1.748039   158A      1.779513   159A      1.817443  
     160A      1.833619   161A      1.891151   162A      1.924275  
     163A      1.963455   164A      2.013243   165A      2.052102  
     166A      2.152265   167A      2.164663   168A      2.189298  
     169A      2.215756   170A      2.229549   171A      2.275546  
     172A      2.281265   173A      2.293154   174A      2.374587  
     175A      2.410104   176A      2.435842   177A      2.442287  
     178A      2.457171   179A      2.489752   180A      2.495160  
     181A      2.525292   182A      2.537149   183A      2.542419  
     184A      2.554125   185A      2.598938   186A      2.613665  
     187A      2.636855   188A      2.762854   189A      2.815017  
     190A      2.859792   191A      2.911745   192A      2.984862  
     193A      3.006464   194A      3.103100   195A      3.115244  
     196A      3.163155   197A      3.252478   198A      3.408974  
     199A      3.444114   200A      3.543050   201A      3.732011  
     202A      3.807036   203A      3.818092   204A      3.837852  
     205A      3.872788   206A      3.977748   207A      4.011845  
     208A      4.089499   209A      4.285849   210A      5.237795  
     211A      5.268756   212A      5.317560   213A      5.349065  
     214A      5.641259   215A      5.814614   216A     10.192316  
     217A     10.329371   218A     10.350384   219A     23.868281  
     220A     23.921753   221A     23.963484   222A     25.999465  
     223A     26.100332   224A     26.302705   225A     26.311644  
     226A     26.324869   227A     26.445272   228A     27.325729  
     229A     27.338608   230A     27.446302   231A     49.978793  
     232A     50.136075   233A    216.373443   234A    216.538935  
     235A    216.567773  

    Final Occupation by Irrep:
              A 
    DOCC [    45 ]

  Energy converged.

  @DF-RKS Final Energy: -1647.58407993989931

   => Energetics <=

    Nuclear Repulsion Energy =            789.8615213445523295
    One-Electron Energy =               -3841.8448430443186226
    Two-Electron Energy =                1461.9258728005372632
    DFT Exchange-Correlation Energy =     -57.5266310406703667
    Empirical Dispersion Energy =           0.0000000000000000
    VV10 Nonlocal Energy =                  0.0000000000000000
    Total Energy =                      -1647.5840799398993113



Properties will be evaluated at   0.000000,   0.000000,   0.000000 [a0]

Properties computed using the SCF density matrix

  Nuclear Dipole Moment: [e a0]
     X:     4.4565      Y:     7.8511      Z:   -11.3950

  Electronic Dipole Moment: [e a0]
     X:    -3.1715      Y:    -6.7219      Z:    10.9699

  Dipole Moment: [e a0]
     X:     1.2849      Y:     1.1292      Z:    -0.4251     Total:     1.7627

  Dipole Moment: [D]
     X:     3.2660      Y:     2.8703      Z:    -1.0804     Total:     4.4802


*** tstop() called on localhost.localdomain at Thu Jan 17 16:30:05 2019
Module time:
	user time   =     325.63 seconds =       5.43 minutes
	system time =       5.89 seconds =       0.10 minutes
	total time  =         23 seconds =       0.38 minutes
Total time:
	user time   =     325.63 seconds =       5.43 minutes
	system time =       5.89 seconds =       0.10 minutes
	total time  =         23 seconds =       0.38 minutes

*** tstart() called on localhost.localdomain
*** at Thu Jan 17 16:30:05 2019


         ------------------------------------------------------------
                                   SCF GRAD                          
                          Rob Parrish, Justin Turney,                
                       Andy Simmonett, and Alex Sokolov              
         ------------------------------------------------------------

  ==> Geometry <==

    Molecular point group: c1
    Full point group: C1

    Geometry (in Angstrom), charge = 0, multiplicity = 1:

       Center              X                  Y                   Z               Mass       
    ------------   -----------------  -----------------  -----------------  -----------------
         C            0.019184028142    -0.121874886080    -1.118401211925    12.000000000000
         O           -1.069959424544    -0.264027921028    -1.805753266917    15.994914619560
         CL           1.075293419393     0.133805851724     0.977259656040    34.968852682000
         CL          -1.085049797130     0.238356847981     0.958275743943    34.968852682000
         H            0.989669356050     3.067921158354    -2.136593274845     1.007825032070
         C            1.222920173500     2.025507344893    -1.932240497507    12.000000000000
         H            1.413411776864     1.485126380263    -2.862286738895     1.007825032070
         H            2.080971700086     1.960432536718    -1.266032482068     1.007825032070
         O            0.094895940780     1.456439889407    -1.252527324271    15.994914619560
         H           -0.803334367288     1.104433094034    -1.839452874103     1.007825032070
         C           -0.037417467842    -0.347599576418     0.395951389795    12.000000000000
         CL          -0.091935612969    -1.656592182922     0.651386738348    34.968852682000
         H            0.978690120408    -0.503480667146    -1.508888987122     1.007825032070

  Nuclear repulsion =  789.861521344552330

  ==> Basis Set <==

  Basis Set: 6-311++G(D,P)
    Blend: 6-311++G(D,P)
    Number of shells: 117
    Number of basis function: 235
    Number of Cartesian functions: 243
    Spherical Harmonics?: true
    Max angular momentum: 2

  ==> DFJKGrad: Density-Fitted SCF Gradients <==

    Gradient:                    1
    J tasked:                  Yes
    K tasked:                  Yes
    wK tasked:                  No
    OpenMP threads:             16
    Integrals threads:          16
    Memory (MB):               375
    Schwarz Cutoff:          0E+00
    Fitting Condition:       1E-12

   => Auxiliary Basis Set <=

  Basis Set: (6-311++G(D,P) AUX)
    Blend: AUG-CC-PVTZ-JKFIT
    Number of shells: 346
    Number of basis function: 1188
    Number of Cartesian functions: 1470
    Spherical Harmonics?: true
    Max angular momentum: 4

  ==> DFT Potential <==

   => Composite Functional: M06-2X <= 

    Hybrid M06-2X Meta-GGA XC Functional

    Y. Zhao and D. G. Truhlar,  Theor. Chem. Acc., 120, 215, 2008


    Deriv               =              1
    GGA                 =           TRUE
    Meta                =           TRUE

    Exchange Hybrid     =           TRUE
    MP2 Hybrid          =          FALSE

   => Exchange Functionals <=

    1.0000   XC_HYB_MGGA_X_M06_2X

   => Exact (HF) Exchange <=

    0.5400               HF 

   => Correlation Functionals <=

    1.0000   XC_MGGA_C_M06_2X

   => Molecular Quadrature <=

    Radial Scheme       =       TREUTLER
    Pruning Scheme      =           FLAT
    Nuclear Scheme      =       TREUTLER

    BS radius alpha     =              1
    Pruning alpha       =              1
    Radial Points       =             75
    Spherical Points    =            302
    Total Points        =         294158
    Total Blocks        =           2281
    Max Points          =            256
    Max Functions       =            211


  -Total Gradient:
     Atom            X                  Y                   Z
    ------   -----------------  -----------------  -----------------
       1        0.005560184285    -0.007223334158     0.060372346525
       2       -0.005391770542    -0.001848494839     0.000115167894
       3       -0.633453335002    -0.286769612182    -0.252432892656
       4        0.645872997050    -0.371948661662    -0.266074669518
       5       -0.000046661472    -0.000187856513     0.000217860926
       6        0.001563526653     0.000070687955     0.000403911094
       7       -0.000271696069    -0.000180148494    -0.000023701765
       8       -0.000079235008     0.000311603580    -0.000088233004
       9        0.000376758133    -0.004067084354     0.008823385339
      10       -0.001343329491    -0.000444320958    -0.000892582934
      11       -0.047229202707    -0.091527598007     0.517239991206
      12        0.034333158039     0.763247555203    -0.067999812820
      13       -0.000098530350     0.000729069239    -0.000238454635


*** tstop() called on localhost.localdomain at Thu Jan 17 16:30:12 2019
Module time:
	user time   =      93.39 seconds =       1.56 minutes
	system time =       2.54 seconds =       0.04 minutes
	total time  =          7 seconds =       0.12 minutes
Total time:
	user time   =     419.06 seconds =       6.98 minutes
	system time =       8.43 seconds =       0.14 minutes
	total time  =         30 seconds =       0.50 minutes

			-----------------------------------------
			 OPTKING 2.0: for geometry optimizations 
			  - R.A. King,  Bethel University        
			-----------------------------------------

	Internal coordinates to be generated automatically.
	Detected frag 1 with atoms:  1 2 3 4 5 6 7 8 9 10 11 12 13
	---Fragment 1 Bond Connectivity---
	 1 : 2 9 11 13
	 2 : 1
	 3 : 4 11 12
	 4 : 3 11 12
	 5 : 6
	 6 : 5 7 8 9
	 7 : 6
	 8 : 6
	 9 : 1 6 10
	 10 : 9
	 11 : 1 3 4 12
	 12 : 3 4 11
	 13 : 1

	---Fragment 1 Geometry and Gradient---
	 C           0.0362525593       -0.2303101572       -2.1134719972
	 O          -2.0219302857       -0.4989404622       -3.4123791380
	 CL          2.0320100751        0.2528564147        1.8467531106
	 CL         -2.0504469571        0.4504291646        1.8108787158
	 H           1.8702040450        5.7975307866       -4.0375761468
	 C           2.3109842103        3.8276541620       -3.6514053632
	 H           2.6709611713        2.8064821314       -5.4089380503
	 H           3.9324666034        3.7046805964       -2.3924546664
	 O           0.1793273392        2.7522725200       -2.3669336168
	 H          -1.5180819473        2.0870760798       -3.4760621664
	 C          -0.0707087668       -0.6568680033        0.7482396886
	 CL         -0.1737331304       -3.1305055396        1.2309425421
	 H           1.8494562965       -0.9514405741       -2.8513869506
	             0.0055601843       -0.0072233342        0.0603723465
	            -0.0053917705       -0.0018484948        0.0001151679
	            -0.6334533350       -0.2867696122       -0.2524328927
	             0.6458729971       -0.3719486617       -0.2660746695
	            -0.0000466615       -0.0001878565        0.0002178609
	             0.0015635267        0.0000706880        0.0004039111
	            -0.0002716961       -0.0001801485       -0.0000237018
	            -0.0000792350        0.0003116036       -0.0000882330
	             0.0003767581       -0.0040670844        0.0088233853
	            -0.0013433295       -0.0004443210       -0.0008925829
	            -0.0472292027       -0.0915275980        0.5172399912
	             0.0343331580        0.7632475552       -0.0679998128
	            -0.0000985303        0.0007290692       -0.0002384546

	Previous optimization step data not found.  Starting new optimization.

	---Fragment 1 Intrafragment Coordinates---
	 - Coordinate -           - BOHR/RAD -       - ANG/DEG -
	 H(2,10)          =         2.635413	       1.394600
	 R(1,2)           =         2.448558	       1.295721
	 R(1,9)           =         2.996750	       1.585812
	 R(1,11)          =         2.895304	       1.532129
	 R(1,13)          =         2.086206	       1.103973
	 R(3,4)           =         4.087392	       2.162955
	 R(3,11)          =         2.540818	       1.344543
	 R(3,12)          =         4.085543	       2.161976
	 R(4,11)          =         2.504930	       1.325552
	 R(4,12)          =         4.084296	       2.161316
	 R(5,6)           =         2.055196	       1.087563
	 R(6,7)           =         2.064291	       1.092376
	 R(6,8)           =         2.056522	       1.088265
	 R(6,9)           =         2.711139	       1.434673
	 R(9,10)          =         2.133975	       1.129251
	 R(11,12)         =         2.522399	       1.334796
	 B(1,9,6)         =         2.062794	     118.189408
	 B(1,9,10)        =         1.261635	      72.286367
	 B(1,11,3)        =         1.921978	     110.121205
	 B(1,11,4)        =         1.964237	     112.542518
	 B(1,11,12)       =         1.912544	     109.580719
	 B(2,1,9)         =         1.675442	      95.995781
	 B(2,1,11)        =         2.068156	     118.496630
	 B(2,1,13)        =         2.100193	     120.332193
	 B(3,4,11)        =         0.631697	      36.193575
	 B(3,4,12)        =         1.047112	      59.995112
	 B(3,11,4)        =         1.888495	     108.202812
	 B(3,11,12)       =         1.877782	     107.589010
	 B(3,12,4)        =         1.047897	      60.040052
	 B(3,12,11)       =         0.634568	      36.358071
	 B(4,3,11)        =         0.621400	      35.603614
	 B(4,3,12)        =         1.046584	      59.964836
	 B(4,11,12)       =         1.896568	     108.665348
	 B(4,12,11)       =         0.620018	      35.524429
	 B(5,6,7)         =         1.930045	     110.583410
	 B(5,6,8)         =         1.919249	     109.964844
	 B(5,6,9)         =         1.876096	     107.492384
	 B(6,9,10)        =         2.097639	     120.185863
	 B(7,6,8)         =         1.932780	     110.740125
	 B(7,6,9)         =         1.922251	     110.136852
	 B(8,6,9)         =         1.881974	     107.829190
	 B(9,1,11)        =         1.804922	     103.414392
	 B(9,1,13)        =         1.846911	     105.820213
	 B(11,1,13)       =         1.907937	     109.316739
	 B(11,3,12)       =         0.629242	      36.052918
	 B(11,4,12)       =         0.625006	      35.810222
	 D(1,9,6,5)       =         2.907055	     166.562000
	 D(1,9,6,7)       =         0.803194	      46.019630
	 D(1,9,6,8)       =        -1.307617	     -74.920913
	 D(1,11,3,4)      =         2.153486	     123.385667
	 D(1,11,3,12)     =        -2.083534	    -119.377690
	 D(1,11,4,3)      =        -2.127725	    -121.909671
	 D(1,11,4,12)     =         2.121423	     121.548575
	 D(1,11,12,3)     =         2.089541	     119.721885
	 D(1,11,12,4)     =        -2.152740	    -123.342933
	 D(2,1,9,6)       =        -2.049471	    -117.426029
	 D(2,1,9,10)      =        -0.036754	      -2.105871
	 D(2,1,11,3)      =        -2.894472	    -165.841006
	 D(2,1,11,4)      =        -0.785837	     -45.025115
	 D(2,1,11,12)     =         1.326471	      76.001183
	 D(3,4,11,12)     =         2.034037	     116.541753
	 D(3,4,12,11)     =        -0.656105	     -37.592065
	 D(3,11,1,9)      =        -1.069275	     -61.264949
	 D(3,11,1,13)     =         0.891949	      51.104937
	 D(3,11,4,12)     =        -2.034037	    -116.541753
	 D(3,11,12,4)     =         2.040904	     116.935183
	 D(3,12,4,11)     =         0.656105	      37.592065
	 D(3,12,11,4)     =        -2.040904	    -116.935183
	 D(4,3,11,12)     =        -2.046165	    -117.236643
	 D(4,3,12,11)     =         0.640896	      36.720635
	 D(4,11,1,9)      =         1.039360	      59.550942
	 D(4,11,1,13)     =         3.000584	     171.920828
	 D(4,11,3,12)     =         2.046165	     117.236643
	 D(4,12,3,11)     =        -0.640896	     -36.720635
	 D(5,6,9,10)      =         1.423971	      81.587542
	 D(6,9,1,11)      =         2.118131	     121.359957
	 D(6,9,1,13)      =         0.112748	       6.459974
	 D(7,6,9,10)      =        -0.679890	     -38.954828
	 D(8,6,9,10)      =        -2.790701	    -159.895370
	 D(9,1,11,12)     =        -3.131518	    -179.422759
	 D(10,9,1,11)     =        -2.152338	    -123.319885
	 D(10,9,1,13)     =         2.125464	     121.780132
	 D(11,3,4,12)     =         0.649067	      37.188823
	 D(11,4,3,12)     =        -0.649067	     -37.188823
	 D(12,11,1,13)    =        -1.170293	     -67.052874
	 R(3,6)           =         6.564050	       3.473546
	 R(4,6)           =         7.763007	       4.108006

	Current energy   :     -1647.5840799399

	Generating empirical Hessian (Schlegel '84) for each fragment.
	Taking PRFO optimization step.
	Maximizing along 1 lowest eigenvalue of Hessian.

 RFO min eigenvalues
 -0.450770 -0.000000 -0.000000 -0.000000 -0.000000 -0.000000 -0.000000 -0.000000
 -0.000000 -0.000000 -0.000000 -0.000000 -0.000000 -0.000000 -0.000000 -0.000000
 -0.000000 -0.000000 -0.000000 -0.000000 -0.000000 -0.000000 -0.000000 -0.000000
  0.000000  0.000000  0.000000  0.000000  0.000000  0.000000  0.000000  0.000000
  0.000000  0.000000  0.000000  0.000000  0.000000  0.000000  0.000000  0.000000
  0.000000  0.000000  0.000000  0.000000  0.000000  0.000000  0.000000  0.000000
  0.000000  0.000000  0.000000  0.000000  0.000000  0.000000  0.000359  0.002085
  0.005042  0.023325  0.032246  0.044500  0.051062  0.061319  0.071608  0.074894
  0.085532  0.086939  0.094612  0.102113  0.124421  0.137424  0.160000  0.160000
  0.160000  0.170185  0.202483  0.227487  0.286518  0.302565  0.332466  0.345395
  0.350139  0.350958  0.377903  0.678107  1.006353  1.089523  1.108692

 RFO max eigenvalues
 -0.000000  0.000000
	Change in coordinate exceeds step limit of    0.50000.
	Scaling displacements by    0.75669
	|RFO target step|  :        0.5000000000
	RFO gradient       :       -0.6821872351
	RFO hessian        :        0.6063416756
	Projected Delta(E) :       -0.2122407265

	Back-transformation to cartesian coordinates...
	Could not converge backtransformation.
	Using first guess instead.

	--- Internal Coordinate Step in ANG or DEG, aJ/ANG or AJ/DEG ---
	 ---------------------------------------------------------------------------
	   Coordinate                Previous        Force       Change         New 
	   ----------                --------       ------       ------       ------
	    1 H(2,10)         =      1.394600    -0.002040    -0.000272     1.394328
	    2 R(1,2)          =      1.295721    -0.037615    -0.001574     1.294148
	    3 R(1,9)          =      1.585812    -0.082169    -0.003001     1.582811
	    4 R(1,11)         =      1.532129     0.384227     0.028650     1.560779
	    5 R(1,13)         =      1.103973     0.002108     0.000143     1.104116
	    6 R(3,4)          =      2.162955     2.707157     0.121334     2.284289
	    7 R(3,11)         =      1.344543     1.733902     0.078911     1.423454
	    8 R(3,12)         =      2.161976     2.666552     0.121012     2.282989
	    9 R(4,11)         =      1.325552     1.846583     0.079001     1.404552
	   10 R(4,12)         =      2.161316     2.824257     0.124225     2.285542
	   11 R(5,6)          =      1.087563     0.002035     0.000178     1.087741
	   12 R(6,7)          =      1.092376    -0.000572     0.000042     1.092418
	   13 R(6,8)          =      1.088265     0.000955     0.000125     1.088390
	   14 R(6,9)          =      1.434673    -0.251456    -0.009492     1.425181
	   15 R(9,10)         =      1.129251    -0.014507    -0.000943     1.128308
	   16 R(11,12)        =      1.334796     1.831221     0.079990     1.414786
	   17 B(1,9,6)        =    118.189408    -0.000297    -0.342263   117.847145
	   18 B(1,9,10)       =     72.286367     0.000069     0.098329    72.384696
	   19 B(1,11,3)       =    110.121205     0.001620     0.633905   110.755110
	   20 B(1,11,4)       =    112.542518     0.000329     0.052304   112.594822
	   21 B(1,11,12)      =    109.580719     0.001443     0.543911   110.124630
	   22 B(2,1,9)        =     95.995781     0.000264     0.042506    96.038287
	   23 B(2,1,11)       =    118.496630     0.000800     0.580965   119.077595
	   24 B(2,1,13)       =    120.332193    -0.000350    -0.166017   120.166176
	   25 B(3,4,11)       =     36.193575     0.000426     0.211314    36.404889
	   26 B(3,4,12)       =     59.995112    -0.000258    -0.050891    59.944221
	   27 B(3,11,4)       =    108.202812    -0.001204    -0.453583   107.749229
	   28 B(3,11,12)      =    107.589010    -0.001297    -0.490919   107.098091
	   29 B(3,12,4)       =     60.040052    -0.000104    -0.039392    60.000660
	   30 B(3,12,11)      =     36.358071     0.000505     0.222120    36.580192
	   31 B(4,3,11)       =     35.603614     0.000779     0.242269    35.845882
	   32 B(4,3,12)       =     59.964836     0.000362     0.090283    60.055119
	   33 B(4,11,12)      =    108.665348    -0.001031    -0.343830   108.321518
	   34 B(4,12,11)      =     35.524429     0.000550     0.164597    35.689026
	   35 B(5,6,7)        =    110.583410    -0.000020    -0.021095   110.562315
	   36 B(5,6,8)        =    109.964844     0.000009     0.005673   109.970517
	   37 B(5,6,9)        =    107.492384     0.000017     0.021599   107.513984
	   38 B(6,9,10)       =    120.185863     0.000221     0.212592   120.398456
	   39 B(7,6,8)        =    110.740125    -0.000015    -0.009884   110.730241
	   40 B(7,6,9)        =    110.136852     0.000037     0.028299   110.165151
	   41 B(8,6,9)        =    107.829190    -0.000026    -0.023531   107.805659
	   42 B(9,1,11)       =    103.414392    -0.002588    -1.300656   102.113736
	   43 B(9,1,13)       =    105.820213     0.001406     0.732736   106.552949
	   44 B(11,1,13)      =    109.316739     0.000106    -0.082088   109.234651
	   45 B(11,3,12)      =     36.052918     0.000792     0.268799    36.321717
	   46 B(11,4,12)      =     35.810222     0.000481     0.179233    35.989456
	   47 D(1,9,6,5)      =    166.562000     0.000005     0.021852   166.583851
	   48 D(1,9,6,7)      =     46.019630     0.000003     0.017752    46.037382
	   49 D(1,9,6,8)      =    -74.920913     0.000006     0.027582   -74.893331
	   50 D(1,11,3,4)     =    123.385667     0.000149     0.167774   123.553441
	   51 D(1,11,3,12)    =   -119.377690    -0.000433    -0.723412  -120.101102
	   52 D(1,11,4,3)     =   -121.909671    -0.000326    -0.517372  -122.427043
	   53 D(1,11,4,12)    =    121.548575     0.000303     0.481939   122.030514
	   54 D(1,11,12,3)    =    119.721885     0.000460     0.781293   120.503177
	   55 D(1,11,12,4)    =   -123.342933    -0.000152    -0.187864  -123.530797
	   56 D(2,1,9,6)      =   -117.426029    -0.000082    -0.338376  -117.764406
	   57 D(2,1,9,10)     =     -2.105871    -0.000011    -0.019649    -2.125520
	   58 D(2,1,11,3)     =   -165.841006     0.000062     0.135867  -165.705139
	   59 D(2,1,11,4)     =    -45.025115     0.000022     0.038464   -44.986652
	   60 D(2,1,11,12)    =     76.001183     0.000002     0.017353    76.018537
	   61 D(3,4,11,12)    =    116.541753    -0.000629    -0.999311   115.542443
	   62 D(3,4,12,11)    =    -37.592065    -0.000371    -0.627110   -38.219176
	   63 D(3,11,1,9)     =    -61.264949    -0.000164    -0.408571   -61.673520
	   64 D(3,11,1,13)    =     51.104937    -0.000072    -0.227437    50.877500
	   65 D(3,11,4,12)    =   -116.541753     0.000629     0.999311  -115.542443
	   66 D(3,11,12,4)    =    116.935183    -0.000611    -0.969156   115.966026
	   67 D(3,12,4,11)    =     37.592065     0.000371     0.627110    38.219176
	   68 D(3,12,11,4)    =   -116.935183     0.000611     0.969156  -115.966026
	   69 D(4,3,11,12)    =   -117.236643     0.000582     0.891185  -116.345457
	   70 D(4,3,12,11)    =     36.720635     0.000374     0.553610    37.274245
	   71 D(4,11,1,9)     =     59.550942    -0.000204    -0.505974    59.044968
	   72 D(4,11,1,13)    =    171.920828    -0.000112    -0.324840   171.595987
	   73 D(4,11,3,12)    =    117.236643    -0.000582    -0.891185   116.345457
	   74 D(4,12,3,11)    =    -36.720635    -0.000374    -0.553610   -37.274245
	   75 D(5,6,9,10)     =     81.587542    -0.000003    -0.019459    81.568083
	   76 D(6,9,1,11)     =    121.359957    -0.000139    -0.627060   120.732897
	   77 D(6,9,1,13)     =      6.459974    -0.000042    -0.265334     6.194640
	   78 D(7,6,9,10)     =    -38.954828    -0.000005    -0.023558   -38.978387
	   79 D(8,6,9,10)     =   -159.895370    -0.000002    -0.013729  -159.909099
	   80 D(9,1,11,12)    =   -179.422759    -0.000223    -0.527085  -179.949844
	   81 D(10,9,1,11)    =   -123.319885    -0.000068    -0.308332  -123.628217
	   82 D(10,9,1,13)    =    121.780132     0.000029     0.053394   121.833526
	   83 D(11,3,4,12)    =     37.188823     0.000380     0.586878    37.775700
	   84 D(11,4,3,12)    =    -37.188823    -0.000380    -0.586878   -37.775700
	   85 D(12,11,1,13)   =    -67.052874    -0.000132    -0.345950   -67.398824
	   86 R(3,6)          =      3.473546    -0.024652     0.002915     3.476461
	   87 R(4,6)          =      4.108006     0.276551     0.017647     4.125654
	 ---------------------------------------------------------------------------
	Successfully symmetrized geometry.

  ==> Convergence Check <==

  Measures of convergence in internal coordinates in au.
  Criteria marked as inactive (o), active & met (*), and active & unmet ( ).
  --------------------------------------------------------------------------------------------- ~
   Step     Total Energy     Delta E     MAX Force     RMS Force      MAX Disp      RMS Disp    ~
  --------------------------------------------------------------------------------------------- ~
    Convergence Criteria    1.00e-06 *    3.00e-04 *             o    1.20e-03 *             o  ~
  --------------------------------------------------------------------------------------------- ~
      1   -1647.58407994   -1.65e+03      3.43e-01      7.54e-02 o    2.35e-01      5.21e-02 o  ~
  ---------------------------------------------------------------------------------------------

	Writing optimization data to binary file.
	Structure for next step:
	Cartesian Geometry (in Angstrom)
	    C     0.0191593219  -0.1251904784  -1.1529011558
	    O    -1.0674437236  -0.2616841472  -1.8424528947
	   CL     1.1483587060   0.1616735199   1.0103122720
	   CL    -1.1322321657   0.2901187460   0.9907285166
	    H     0.9868295248   3.0681455627  -2.1196494952
	    C     1.2164010609   2.0228388943  -1.9251971826
	    H     1.4129800035   1.4928553536  -2.8599967545
	    H     2.0694442759   1.9483474715  -1.2533637668
	    O     0.0900494438   1.4521004951  -1.2643405183
	    H    -0.8059091344   1.1078137583  -1.8574718822
	    C    -0.0304419015  -0.3424990795   0.3918792089
	   CL    -0.0965401352  -1.7245491259   0.6871573486
	    H     0.9766845692  -0.5115231005  -1.5440068255
			--------------------------
			 OPTKING Finished Execution 
			--------------------------

    Structure for next step:
    Molecular point group: c1
    Full point group: C1

    Geometry (in Angstrom), charge = 0, multiplicity = 1:

    C            0.015267742457    -0.127195663513    -1.166196988462
    O           -1.071335302997    -0.263689332323    -1.855748727366
    CL           1.144467126550     0.159668334736     0.997016439332
    CL          -1.136123745170     0.288113560883     0.977432683977
    H            0.982937945326     3.066140377556    -2.132945327813
    C            1.212509481419     2.020833709194    -1.938493015251
    H            1.409088424042     1.490850168447    -2.873292587144
    H            2.065552696413     1.946342286371    -1.266659599479
    O            0.086157864385     1.450095309963    -1.277636350980
    H           -0.809800713841     1.105808573152    -1.870767714867
    C           -0.034333480959    -0.344504264633     0.378583376300
    CL          -0.100431714650    -1.726554311052     0.673861515925
    H            0.972792989726    -0.513528285676    -1.557302658128

gradient() will perform analytic gradient computation.

*** tstart() called on localhost.localdomain
*** at Thu Jan 17 16:30:12 2019

   => Loading Basis Set <=

    Name: 6-311++G(D,P)
    Role: ORBITAL
    Keyword: BASIS
    atoms 1, 6, 11       entry C          line   119 file /root/psi4conda/share/psi4/basis/6-311ppg_d_p_.gbs 
    atoms 2, 9           entry O          line   161 file /root/psi4conda/share/psi4/basis/6-311ppg_d_p_.gbs 
    atoms 3-4, 12        entry CL         line   458 file /root/psi4conda/share/psi4/basis/6-311ppg_d_p_.gbs 
    atoms 5, 7-8, 10, 13 entry H          line    42 file /root/psi4conda/share/psi4/basis/6-311ppg_d_p_.gbs 


         ---------------------------------------------------------
                                   SCF
            by Justin Turney, Rob Parrish, Andy Simmonett
                             and Daniel Smith
                              RKS Reference
                       16 Threads,    500 MiB Core
         ---------------------------------------------------------

  ==> Geometry <==

    Molecular point group: c1
    Full point group: C1

    Geometry (in Angstrom), charge = 0, multiplicity = 1:

       Center              X                  Y                   Z               Mass       
    ------------   -----------------  -----------------  -----------------  -----------------
         C            0.015267742457    -0.127195663513    -1.166196988462    12.000000000000
         O           -1.071335302997    -0.263689332323    -1.855748727366    15.994914619560
         CL           1.144467126550     0.159668334736     0.997016439332    34.968852682000
         CL          -1.136123745170     0.288113560883     0.977432683977    34.968852682000
         H            0.982937945326     3.066140377556    -2.132945327813     1.007825032070
         C            1.212509481419     2.020833709194    -1.938493015251    12.000000000000
         H            1.409088424042     1.490850168447    -2.873292587144     1.007825032070
         H            2.065552696413     1.946342286371    -1.266659599479     1.007825032070
         O            0.086157864385     1.450095309963    -1.277636350980    15.994914619560
         H           -0.809800713841     1.105808573152    -1.870767714867     1.007825032070
         C           -0.034333480959    -0.344504264633     0.378583376300    12.000000000000
         CL          -0.100431714650    -1.726554311052     0.673861515925    34.968852682000
         H            0.972792989726    -0.513528285676    -1.557302658128     1.007825032070

  Running in c1 symmetry.

  Rotational constants: A =      0.06753  B =      0.03815  C =      0.03373 [cm^-1]
  Rotational constants: A =   2024.45008  B =   1143.68365  C =   1011.32833 [MHz]
  Nuclear repulsion =  765.256933103819165

  Charge       = 0
  Multiplicity = 1
  Electrons    = 90
  Nalpha       = 45
  Nbeta        = 45

  ==> Algorithm <==

  SCF Algorithm Type is DF.
  DIIS enabled.
  MOM disabled.
  Fractional occupation disabled.
  Guess Type is READ.
  Energy threshold   = 1.00e-08
  Density threshold  = 1.00e-08
  Integral threshold = 0.00e+00

  ==> Primary Basis <==

  Basis Set: 6-311++G(D,P)
    Blend: 6-311++G(D,P)
    Number of shells: 117
    Number of basis function: 235
    Number of Cartesian functions: 243
    Spherical Harmonics?: true
    Max angular momentum: 2

  ==> DFT Potential <==

   => Composite Functional: M06-2X <= 

    Hybrid M06-2X Meta-GGA XC Functional

    Y. Zhao and D. G. Truhlar,  Theor. Chem. Acc., 120, 215, 2008


    Deriv               =              1
    GGA                 =           TRUE
    Meta                =           TRUE

    Exchange Hybrid     =           TRUE
    MP2 Hybrid          =          FALSE

   => Exchange Functionals <=

    1.0000   XC_HYB_MGGA_X_M06_2X

   => Exact (HF) Exchange <=

    0.5400               HF 

   => Correlation Functionals <=

    1.0000   XC_MGGA_C_M06_2X

   => Molecular Quadrature <=

    Radial Scheme       =       TREUTLER
    Pruning Scheme      =           FLAT
    Nuclear Scheme      =       TREUTLER

    BS radius alpha     =              1
    Pruning alpha       =              1
    Radial Points       =             75
    Spherical Points    =            302
    Total Points        =         294156
    Total Blocks        =           2278
    Max Points          =            256
    Max Functions       =            212

   => Loading Basis Set <=

    Name: (6-311++G(D,P) AUX)
    Role: JKFIT
    Keyword: DF_BASIS_SCF
    atoms 1, 6, 11       entry C          line   162 file /root/psi4conda/share/psi4/basis/aug-cc-pvtz-jkfit.gbs 
    atoms 2, 9           entry O          line   286 file /root/psi4conda/share/psi4/basis/aug-cc-pvtz-jkfit.gbs 
    atoms 3-4, 12        entry CL         line   816 file /root/psi4conda/share/psi4/basis/aug-cc-pvtz-jkfit.gbs 
    atoms 5, 7-8, 10, 13 entry H          line    70 file /root/psi4conda/share/psi4/basis/aug-cc-pvtz-jkfit.gbs 

  Reading orbitals from file 180, no projection.

  ==> Pre-Iterations <==

   -------------------------------------------------------
    Irrep   Nso     Nmo     Nalpha   Nbeta   Ndocc  Nsocc
   -------------------------------------------------------
     A        235     235       0       0       0       0
   -------------------------------------------------------
    Total     235     235      45      45      45       0
   -------------------------------------------------------

  ==> Integral Setup <==

  ==> DiskDFJK: Density-Fitted J/K Matrices <==

    J tasked:                  Yes
    K tasked:                  Yes
    wK tasked:                  No
    OpenMP threads:             16
    Integrals threads:          16
    Memory (MB):               375
    Algorithm:                Core
    Integral Cache:           NONE
    Schwarz Cutoff:          1E-12
    Fitting Condition:       1E-12

   => Auxiliary Basis Set <=

  Basis Set: (6-311++G(D,P) AUX)
    Blend: AUG-CC-PVTZ-JKFIT
    Number of shells: 346
    Number of basis function: 1188
    Number of Cartesian functions: 1470
    Spherical Harmonics?: true
    Max angular momentum: 4

  Minimum eigenvalue in the overlap matrix is 3.8720054218E-06.
  Using Symmetric Orthogonalization.

  SCF Guess: Orbitals guess was supplied from a previous computation.

  ==> Iterations <==

                           Total Energy        Delta E     RMS |[F,P]|

   @DF-RKS iter   0: -1647.88012879413509   -1.64788e+03   1.40629e-02 
   @DF-RKS iter   1: -1647.85304965693035    2.70791e-02   2.15363e-03 
   @DF-RKS iter   2: -1647.85077701386717    2.27264e-03   2.73649e-03 DIIS
   @DF-RKS iter   3: -1647.86228729633967   -1.15103e-02   3.35561e-04 DIIS
   @DF-RKS iter   4: -1647.86242956460001   -1.42268e-04   9.55308e-05 DIIS
   @DF-RKS iter   5: -1647.86244036209791   -1.07975e-05   3.55516e-05 DIIS
   @DF-RKS iter   6: -1647.86244221407151   -1.85197e-06   1.11187e-05 DIIS
   @DF-RKS iter   7: -1647.86244238781455   -1.73743e-07   3.70273e-06 DIIS
   @DF-RKS iter   8: -1647.86244240991209   -2.20975e-08   8.38878e-07 DIIS
   @DF-RKS iter   9: -1647.86244241169743   -1.78534e-09   1.52999e-07 DIIS
   @DF-RKS iter  10: -1647.86244241180430   -1.06866e-10   6.09269e-08 DIIS
   @DF-RKS iter  11: -1647.86244241181521   -1.09139e-11   1.91670e-08 DIIS
   @DF-RKS iter  12: -1647.86244241181589   -6.82121e-13   6.32748e-09 DIIS

  ==> Post-Iterations <==

    Orbital Energies [Eh]
    ---------------------

    Doubly Occupied:                                                      

       1A   -102.673546     2A   -102.668572     3A   -102.662383  
       4A    -19.713469     5A    -19.593970     6A    -10.676380  
       7A    -10.658994     8A    -10.626850     9A     -9.832943  
      10A     -9.828276    11A     -9.822807    12A     -7.558344  
      13A     -7.553803    14A     -7.549668    15A     -7.549288  
      16A     -7.548439    17A     -7.544887    18A     -7.544506  
      19A     -7.539323    20A     -7.538984    21A     -1.284778  
      22A     -1.249480    23A     -1.125484    24A     -1.020556  
      25A     -1.018748    26A     -0.849232    27A     -0.811860  
      28A     -0.685378    29A     -0.665767    30A     -0.650329  
      31A     -0.624334    32A     -0.619392    33A     -0.584753  
      34A     -0.558767    35A     -0.517311    36A     -0.480117  
      37A     -0.477757    38A     -0.457222    39A     -0.448785  
      40A     -0.415065    41A     -0.373555    42A     -0.363466  
      43A     -0.353486    44A     -0.325799    45A     -0.322576  

    Virtual:                                                              

      46A     -0.011213    47A      0.010104    48A      0.017026  
      49A      0.021543    50A      0.041925    51A      0.044084  
      52A      0.052190    53A      0.057334    54A      0.063364  
      55A      0.072246    56A      0.078746    57A      0.084993  
      58A      0.093384    59A      0.102212    60A      0.104401  
      61A      0.108524    62A      0.118756    63A      0.122852  
      64A      0.126298    65A      0.133937    66A      0.136514  
      67A      0.142108    68A      0.146866    69A      0.150134  
      70A      0.166257    71A      0.175978    72A      0.179428  
      73A      0.182319    74A      0.189095    75A      0.198802  
      76A      0.208583    77A      0.211765    78A      0.219567  
      79A      0.230425    80A      0.239095    81A      0.252308  
      82A      0.261671    83A      0.267488    84A      0.286185  
      85A      0.290770    86A      0.309989    87A      0.322694  
      88A      0.330284    89A      0.345850    90A      0.353843  
      91A      0.357232    92A      0.374461    93A      0.398163  
      94A      0.409915    95A      0.416937    96A      0.428517  
      97A      0.444483    98A      0.463090    99A      0.471301  
     100A      0.481689   101A      0.495247   102A      0.499107  
     103A      0.525334   104A      0.549413   105A      0.555446  
     106A      0.566261   107A      0.575098   108A      0.598157  
     109A      0.603683   110A      0.607066   111A      0.620249  
     112A      0.649032   113A      0.667382   114A      0.679410  
     115A      0.688299   116A      0.711420   117A      0.738589  
     118A      0.768045   119A      0.842099   120A      0.880510  
     121A      0.911034   122A      0.923470   123A      0.927729  
     124A      0.940628   125A      0.959088   126A      0.993133  
     127A      1.015753   128A      1.039983   129A      1.052801  
     130A      1.062025   131A      1.086654   132A      1.101756  
     133A      1.120172   134A      1.154531   135A      1.163675  
     136A      1.174471   137A      1.243869   138A      1.249938  
     139A      1.264685   140A      1.287140   141A      1.333262  
     142A      1.345226   143A      1.364461   144A      1.382684  
     145A      1.401358   146A      1.428204   147A      1.453461  
     148A      1.494723   149A      1.545004   150A      1.560977  
     151A      1.565962   152A      1.579482   153A      1.622051  
     154A      1.660351   155A      1.696257   156A      1.721388  
     157A      1.739420   158A      1.750053   159A      1.769331  
     160A      1.816485   161A      1.867136   162A      1.905113  
     163A      1.926675   164A      1.998559   165A      2.043421  
     166A      2.083597   167A      2.121624   168A      2.145197  
     169A      2.151761   170A      2.193934   171A      2.226331  
     172A      2.287802   173A      2.316277   174A      2.374383  
     175A      2.386292   176A      2.409353   177A      2.420804  
     178A      2.457685   179A      2.476250   180A      2.502838  
     181A      2.515951   182A      2.526577   183A      2.538091  
     184A      2.551681   185A      2.595862   186A      2.615346  
     187A      2.630972   188A      2.755506   189A      2.811345  
     190A      2.838415   191A      2.911352   192A      2.970006  
     193A      3.001362   194A      3.073930   195A      3.118713  
     196A      3.162223   197A      3.250321   198A      3.389785  
     199A      3.433613   200A      3.540494   201A      3.655422  
     202A      3.682126   203A      3.744212   204A      3.814988  
     205A      3.840793   206A      3.971359   207A      4.001916  
     208A      4.081140   209A      4.227755   210A      5.236237  
     211A      5.269097   212A      5.315463   213A      5.347022  
     214A      5.651185   215A      5.804509   216A     10.107326  
     217A     10.218442   218A     10.240149   219A     23.801083  
     220A     23.856299   221A     23.964708   222A     25.927118  
     223A     26.020676   224A     26.207380   225A     26.277427  
     226A     26.301859   227A     26.394716   228A     26.967809  
     229A     27.028850   230A     27.099362   231A     49.976845  
     232A     50.132482   233A    216.252751   234A    216.383551  
     235A    216.410923  

    Final Occupation by Irrep:
              A 
    DOCC [    45 ]

  Energy converged.

  @DF-RKS Final Energy: -1647.86244241181589

   => Energetics <=

    Nuclear Repulsion Energy =            765.2569331038191649
    One-Electron Energy =               -3793.6091135836413741
    Two-Electron Energy =                1437.9065687520846950
    DFT Exchange-Correlation Energy =     -57.4168306840786471
    Empirical Dispersion Energy =           0.0000000000000000
    VV10 Nonlocal Energy =                  0.0000000000000000
    Total Energy =                      -1647.8624424118158913



Properties will be evaluated at   0.000000,   0.000000,   0.000000 [a0]

Properties computed using the SCF density matrix

  Nuclear Dipole Moment: [e a0]
     X:     4.4112      Y:     7.8283      Z:   -11.5338

  Electronic Dipole Moment: [e a0]
     X:    -3.1308      Y:    -6.6975      Z:    11.1126

  Dipole Moment: [e a0]
     X:     1.2804      Y:     1.1308      Z:    -0.4212     Total:     1.7594

  Dipole Moment: [D]
     X:     3.2545      Y:     2.8741      Z:    -1.0705     Total:     4.4719


*** tstop() called on localhost.localdomain at Thu Jan 17 16:30:28 2019
Module time:
	user time   =     239.79 seconds =       4.00 minutes
	system time =       3.96 seconds =       0.07 minutes
	total time  =         16 seconds =       0.27 minutes
Total time:
	user time   =     660.12 seconds =      11.00 minutes
	system time =      12.48 seconds =       0.21 minutes
	total time  =         46 seconds =       0.77 minutes

*** tstart() called on localhost.localdomain
*** at Thu Jan 17 16:30:28 2019


         ------------------------------------------------------------
                                   SCF GRAD                          
                          Rob Parrish, Justin Turney,                
                       Andy Simmonett, and Alex Sokolov              
         ------------------------------------------------------------

  ==> Geometry <==

    Molecular point group: c1
    Full point group: C1

    Geometry (in Angstrom), charge = 0, multiplicity = 1:

       Center              X                  Y                   Z               Mass       
    ------------   -----------------  -----------------  -----------------  -----------------
         C            0.015267742457    -0.127195663513    -1.166196988462    12.000000000000
         O           -1.071335302997    -0.263689332323    -1.855748727366    15.994914619560
         CL           1.144467126550     0.159668334736     0.997016439332    34.968852682000
         CL          -1.136123745170     0.288113560883     0.977432683977    34.968852682000
         H            0.982937945326     3.066140377556    -2.132945327813     1.007825032070
         C            1.212509481419     2.020833709194    -1.938493015251    12.000000000000
         H            1.409088424042     1.490850168447    -2.873292587144     1.007825032070
         H            2.065552696413     1.946342286371    -1.266659599479     1.007825032070
         O            0.086157864385     1.450095309963    -1.277636350980    15.994914619560
         H           -0.809800713841     1.105808573152    -1.870767714867     1.007825032070
         C           -0.034333480959    -0.344504264633     0.378583376300    12.000000000000
         CL          -0.100431714650    -1.726554311052     0.673861515925    34.968852682000
         H            0.972792989726    -0.513528285676    -1.557302658128     1.007825032070

  Nuclear repulsion =  765.256933103819165

  ==> Basis Set <==

  Basis Set: 6-311++G(D,P)
    Blend: 6-311++G(D,P)
    Number of shells: 117
    Number of basis function: 235
    Number of Cartesian functions: 243
    Spherical Harmonics?: true
    Max angular momentum: 2

  ==> DFJKGrad: Density-Fitted SCF Gradients <==

    Gradient:                    1
    J tasked:                  Yes
    K tasked:                  Yes
    wK tasked:                  No
    OpenMP threads:             16
    Integrals threads:          16
    Memory (MB):               375
    Schwarz Cutoff:          0E+00
    Fitting Condition:       1E-12

   => Auxiliary Basis Set <=

  Basis Set: (6-311++G(D,P) AUX)
    Blend: AUG-CC-PVTZ-JKFIT
    Number of shells: 346
    Number of basis function: 1188
    Number of Cartesian functions: 1470
    Spherical Harmonics?: true
    Max angular momentum: 4

  ==> DFT Potential <==

   => Composite Functional: M06-2X <= 

    Hybrid M06-2X Meta-GGA XC Functional

    Y. Zhao and D. G. Truhlar,  Theor. Chem. Acc., 120, 215, 2008


    Deriv               =              1
    GGA                 =           TRUE
    Meta                =           TRUE

    Exchange Hybrid     =           TRUE
    MP2 Hybrid          =          FALSE

   => Exchange Functionals <=

    1.0000   XC_HYB_MGGA_X_M06_2X

   => Exact (HF) Exchange <=

    0.5400               HF 

   => Correlation Functionals <=

    1.0000   XC_MGGA_C_M06_2X

   => Molecular Quadrature <=

    Radial Scheme       =       TREUTLER
    Pruning Scheme      =           FLAT
    Nuclear Scheme      =       TREUTLER

    BS radius alpha     =              1
    Pruning alpha       =              1
    Radial Points       =             75
    Spherical Points    =            302
    Total Points        =         294156
    Total Blocks        =           2278
    Max Points          =            256
    Max Functions       =            212


  -Total Gradient:
     Atom            X                  Y                   Z
    ------   -----------------  -----------------  -----------------
       1        0.004561821474    -0.003565871070     0.027795883192
       2       -0.003447251432    -0.000581953696    -0.000844192254
       3       -0.419472621019    -0.188487877342    -0.159002816389
       4        0.423172844306    -0.249110602970    -0.168839591378
       5       -0.000500537860    -0.000311015729     0.000408836471
       6       -0.002077215370    -0.002706301508     0.002848959676
       7       -0.000621308772    -0.000349345547     0.000247111986
       8       -0.000358934677     0.000014737767     0.000301566938
       9        0.002503379925    -0.001625267959     0.005993199902
      10       -0.000787097879    -0.000341968367    -0.000608249649
      11       -0.029069973073    -0.052041490324     0.337523045110
      12        0.026427594045     0.499301971823    -0.045163153811
      13       -0.000399162760    -0.000089695606    -0.000757362022


*** tstop() called on localhost.localdomain at Thu Jan 17 16:30:33 2019
Module time:
	user time   =      70.76 seconds =       1.18 minutes
	system time =       2.43 seconds =       0.04 minutes
	total time  =          5 seconds =       0.08 minutes
Total time:
	user time   =     730.91 seconds =      12.18 minutes
	system time =      14.91 seconds =       0.25 minutes
	total time  =         51 seconds =       0.85 minutes

			-----------------------------------------
			 OPTKING 2.0: for geometry optimizations 
			  - R.A. King,  Bethel University        
			-----------------------------------------

	Previous internal coordinate definitions found.
	---Fragment 1 Geometry and Gradient---
	 C           0.0288518519       -0.2403649693       -2.2037929252
	 O          -2.0245303192       -0.4983006223       -3.5068568662
	 CL          2.1627294373        0.3017294247        1.8840880203
	 CL         -2.1469627314        0.5444557252        1.8470800860
	 H           1.8574835223        5.7941655986       -4.0306825260
	 C           2.2913108534        3.8188222705       -3.6632209093
	 H           2.6627912185        2.8172985235       -5.4297360894
	 H           3.9033289093        3.6780538821       -2.3936397466
	 O           0.1628147679        2.7402830024       -2.4143828008
	 H          -1.5303015714        2.0896753587       -3.5352386393
	 C          -0.0648808762       -0.6510187118        0.7154188997
	 CL         -0.1897884357       -3.2627148014        1.2734137166
	 H           1.8383123346       -0.9704278214       -2.9428755299
	             0.0045618215       -0.0035658711        0.0277958832
	            -0.0034472514       -0.0005819537       -0.0008441923
	            -0.4194726210       -0.1884878773       -0.1590028164
	             0.4231728443       -0.2491106030       -0.1688395914
	            -0.0005005379       -0.0003110157        0.0004088365
	            -0.0020772154       -0.0027063015        0.0028489597
	            -0.0006213088       -0.0003493455        0.0002471120
	            -0.0003589347        0.0000147378        0.0003015669
	             0.0025033799       -0.0016252680        0.0059931999
	            -0.0007870979       -0.0003419684       -0.0006082496
	            -0.0290699731       -0.0520414903        0.3375230451
	             0.0264275940        0.4993019718       -0.0451631538
	            -0.0003991628       -0.0000896956       -0.0007573620

	---Fragment 1 Intrafragment Coordinates---
	 - Coordinate -           - BOHR/RAD -       - ANG/DEG -
	 H(2,10)          =         2.634898	       1.394328
	 R(1,2)           =         2.445585	       1.294148
	 R(1,9)           =         2.991079	       1.582811
	 R(1,11)          =         2.949444	       1.560779
	 R(1,13)          =         2.086476	       1.104116
	 R(3,4)           =         4.316681	       2.284289
	 R(3,11)          =         2.689938	       1.423454
	 R(3,12)          =         4.314224	       2.282989
	 R(4,11)          =         2.654219	       1.404552
	 R(4,12)          =         4.319048	       2.285542
	 R(5,6)           =         2.055533	       1.087741
	 R(6,7)           =         2.064370	       1.092418
	 R(6,8)           =         2.056758	       1.088390
	 R(6,9)           =         2.693202	       1.425181
	 R(9,10)          =         2.132194	       1.128308
	 R(11,12)         =         2.673559	       1.414786
	 B(1,9,6)         =         2.056821	     117.847145
	 B(1,9,10)        =         1.263351	      72.384696
	 B(1,11,3)        =         1.933041	     110.755110
	 B(1,11,4)        =         1.965150	     112.594822
	 B(1,11,12)       =         1.922037	     110.124630
	 B(2,1,9)         =         1.676184	      96.038287
	 B(2,1,11)        =         2.078296	     119.077595
	 B(2,1,13)        =         2.097295	     120.166176
	 B(3,4,11)        =         0.635385	      36.404889
	 B(3,4,12)        =         1.046224	      59.944221
	 B(3,11,4)        =         1.880579	     107.749229
	 B(3,11,12)       =         1.869214	     107.098091
	 B(3,12,4)        =         1.047209	      60.000660
	 B(3,12,11)       =         0.638445	      36.580192
	 B(4,3,11)        =         0.625629	      35.845882
	 B(4,3,12)        =         1.048160	      60.055119
	 B(4,11,12)       =         1.890567	     108.321518
	 B(4,12,11)       =         0.622891	      35.689026
	 B(5,6,7)         =         1.929676	     110.562315
	 B(5,6,8)         =         1.919348	     109.970517
	 B(5,6,9)         =         1.876473	     107.513984
	 B(6,9,10)        =         2.101349	     120.398456
	 B(7,6,8)         =         1.932607	     110.730241
	 B(7,6,9)         =         1.922745	     110.165151
	 B(8,6,9)         =         1.881564	     107.805659
	 B(9,1,11)        =         1.782221	     102.113736
	 B(9,1,13)        =         1.859700	     106.552949
	 B(11,1,13)       =         1.906504	     109.234651
	 B(11,3,12)       =         0.633934	      36.321717
	 B(11,4,12)       =         0.628135	      35.989456
	 D(1,9,6,5)       =         2.907437	     166.583851
	 D(1,9,6,7)       =         0.803504	      46.037382
	 D(1,9,6,8)       =        -1.307135	     -74.893331
	 D(1,11,3,4)      =         2.156414	     123.553441
	 D(1,11,3,12)     =        -2.096160	    -120.101102
	 D(1,11,4,3)      =        -2.136755	    -122.427043
	 D(1,11,4,12)     =         2.129834	     122.030514
	 D(1,11,12,3)     =         2.103177	     120.503177
	 D(1,11,12,4)     =        -2.156019	    -123.530797
	 D(2,1,9,6)       =        -2.055377	    -117.764406
	 D(2,1,9,10)      =        -0.037097	      -2.125520
	 D(2,1,11,3)      =        -2.892100	    -165.705139
	 D(2,1,11,4)      =        -0.785165	     -44.986652
	 D(2,1,11,12)     =         1.326774	      76.018537
	 D(3,4,11,12)     =         2.016596	     115.542443
	 D(3,4,12,11)     =        -0.667050	     -38.219176
	 D(3,11,1,9)      =        -1.076406	     -61.673520
	 D(3,11,1,13)     =         0.887980	      50.877500
	 D(3,11,4,12)     =        -2.016596	    -115.542443
	 D(3,11,12,4)     =         2.023989	     115.966026
	 D(3,12,4,11)     =         0.667050	      38.219176
	 D(3,12,11,4)     =        -2.023989	    -115.966026
	 D(4,3,11,12)     =        -2.030611	    -116.345457
	 D(4,3,12,11)     =         0.650558	      37.274245
	 D(4,11,1,9)      =         1.030529	      59.044968
	 D(4,11,1,13)     =         2.994915	     171.595987
	 D(4,11,3,12)     =         2.030611	     116.345457
	 D(4,12,3,11)     =        -0.650558	     -37.274245
	 D(5,6,9,10)      =         1.423632	      81.568083
	 D(6,9,1,11)      =         2.107187	     120.732897
	 D(6,9,1,13)      =         0.108117	       6.194640
	 D(7,6,9,10)      =        -0.680301	     -38.978387
	 D(8,6,9,10)      =        -2.790940	    -159.909099
	 D(9,1,11,12)     =        -3.140717	    -179.949844
	 D(10,9,1,11)     =        -2.157719	    -123.628217
	 D(10,9,1,13)     =         2.126396	     121.833526
	 D(11,3,4,12)     =         0.659310	      37.775700
	 D(11,4,3,12)     =        -0.659310	     -37.775700
	 D(12,11,1,13)    =        -1.176331	     -67.398824
	 R(3,6)           =         6.569559	       3.476461
	 R(4,6)           =         7.796356	       4.125654

	Current energy   :     -1647.8624424118

	Energy change for the previous step:
		Projected    :        -0.2122407265
		Actual       :        -0.2783624719

	Performing Bofill update.
	Previous computed or guess Hessian on step 1.
	Steps to be used in Hessian update: 1
	Taking PRFO optimization step.
	Maximizing along 1 lowest eigenvalue of Hessian.

 RFO min eigenvalues
 -0.273895 -0.000000 -0.000000 -0.000000 -0.000000 -0.000000 -0.000000 -0.000000
 -0.000000 -0.000000 -0.000000 -0.000000 -0.000000 -0.000000 -0.000000 -0.000000
 -0.000000 -0.000000 -0.000000 -0.000000 -0.000000 -0.000000 -0.000000 -0.000000
 -0.000000 -0.000000 -0.000000 -0.000000 -0.000000 -0.000000  0.000000  0.000000
  0.000000  0.000000  0.000000  0.000000  0.000000  0.000000  0.000000  0.000000
  0.000000  0.000000  0.000000  0.000000  0.000000  0.000000  0.000000  0.000000
  0.000000  0.000000  0.000000  0.000000  0.000000  0.000000  0.000359  0.002085
  0.005024  0.023278  0.032247  0.044496  0.051004  0.061284  0.071608  0.074895
  0.085476  0.085557  0.094586  0.102076  0.124398  0.137360  0.159966  0.160000
  0.160001  0.170067  0.201887  0.227258  0.277108  0.302520  0.332465  0.345394
  0.350139  0.350958  0.377160  0.678103  0.774329  1.013190  1.089700

 RFO max eigenvalues
 -0.000000  0.000000
	Change in coordinate exceeds step limit of    0.50000.
	Scaling displacements by    0.83457
	|RFO target step|  :        0.5000000000
	RFO gradient       :       -0.4571690338
	RFO hessian        :        0.4920734689
	Projected Delta(E) :       -0.1336602666

	Back-transformation to cartesian coordinates...
	Could not converge backtransformation.
	Using first guess instead.

	--- Internal Coordinate Step in ANG or DEG, aJ/ANG or AJ/DEG ---
	 ---------------------------------------------------------------------------
	   Coordinate                Previous        Force       Change         New 
	   ----------                --------       ------       ------       ------
	    1 H(2,10)         =      1.394328    -0.000344     0.000282     1.394610
	    2 R(1,2)          =      1.294148    -0.027882    -0.002057     1.292091
	    3 R(1,9)          =      1.582811    -0.040725    -0.000231     1.582580
	    4 R(1,11)         =      1.560779     0.156216     0.003219     1.563998
	    5 R(1,13)         =      1.104116     0.000349    -0.000058     1.104058
	    6 R(3,4)          =      2.284289     1.775321     0.124543     2.408832
	    7 R(3,11)         =      1.423454     1.147882     0.081871     1.505325
	    8 R(3,12)         =      2.282989     1.747039     0.123862     2.406851
	    9 R(4,11)         =      1.404552     1.216896     0.082553     1.487106
	   10 R(4,12)         =      2.285542     1.842298     0.126607     2.412149
	   11 R(5,6)          =      1.087741     0.002362     0.000384     1.088125
	   12 R(6,7)          =      1.092418     0.001178     0.000434     1.092852
	   13 R(6,8)          =      1.088390     0.000693     0.000114     1.088504
	   14 R(6,9)          =      1.425181    -0.129061    -0.004111     1.421070
	   15 R(9,10)         =      1.128308    -0.008781    -0.000657     1.127652
	   16 R(11,12)        =      1.414786     1.203362     0.083211     1.497998
	   17 B(1,9,6)        =    117.847145    -0.000061     0.196246   118.043390
	   18 B(1,9,10)       =     72.384696     0.000001    -0.056713    72.327984
	   19 B(1,11,3)       =    110.755110     0.000986     0.596753   111.351863
	   20 B(1,11,4)       =    112.594822     0.000248     0.171528   112.766350
	   21 B(1,11,12)      =    110.124630     0.000976     0.748113   110.872744
	   22 B(2,1,9)        =     96.038287     0.000166     0.076091    96.114377
	   23 B(2,1,11)       =    119.077595     0.000468     0.290204   119.367798
	   24 B(2,1,13)       =    120.166176    -0.000169     0.025230   120.191406
	   25 B(3,4,11)       =     36.404889     0.000292     0.245160    36.650049
	   26 B(3,4,12)       =     59.944221    -0.000149    -0.044122    59.900099
	   27 B(3,11,4)       =    107.749229    -0.000789    -0.535087   107.214142
	   28 B(3,11,12)      =    107.098091    -0.000836    -0.571054   106.527037
	   29 B(3,12,4)       =     60.000660    -0.000048    -0.019124    59.981536
	   30 B(3,12,11)      =     36.580192     0.000340     0.260621    36.840812
	   31 B(4,3,11)       =     35.845882     0.000497     0.289927    36.135809
	   32 B(4,3,12)       =     60.055119     0.000197     0.063246    60.118365
	   33 B(4,11,12)      =    108.321518    -0.000709    -0.508017   107.813501
	   34 B(4,12,11)      =     35.689026     0.000380     0.251813    35.940839
	   35 B(5,6,7)        =    110.562315    -0.000056    -0.155384   110.406931
	   36 B(5,6,8)        =    109.970517    -0.000033    -0.121986   109.848531
	   37 B(5,6,9)        =    107.513984     0.000058     0.170554   107.684537
	   38 B(6,9,10)       =    120.398456     0.000186     0.245768   120.644224
	   39 B(7,6,8)        =    110.730241    -0.000051    -0.145002   110.585239
	   40 B(7,6,9)        =    110.165151     0.000064     0.152235   110.317386
	   41 B(8,6,9)        =    107.805659     0.000024     0.114776   107.920435
	   42 B(9,1,11)       =    102.113736    -0.001541    -0.891876   101.221860
	   43 B(9,1,13)       =    106.552949     0.000855     0.594410   107.147359
	   44 B(11,1,13)      =    109.234651     0.000016    -0.180461   109.054190
	   45 B(11,3,12)      =     36.321717     0.000496     0.310433    36.632150
	   46 B(11,4,12)      =     35.989456     0.000328     0.256205    36.245660
	   47 D(1,9,6,5)      =    166.583851     0.000007     0.081265   166.665117
	   48 D(1,9,6,7)      =     46.037382     0.000006     0.076094    46.113475
	   49 D(1,9,6,8)      =    -74.893331     0.000008     0.090889   -74.802441
	   50 D(1,11,3,4)     =    123.553441     0.000094     0.232738   123.786179
	   51 D(1,11,3,12)    =   -120.101102    -0.000284    -0.898729  -120.999831
	   52 D(1,11,4,3)     =   -122.427043    -0.000196    -0.488194  -122.915237
	   53 D(1,11,4,12)    =    122.030514     0.000206     0.701188   122.731702
	   54 D(1,11,12,3)    =    120.503177     0.000286     0.802685   121.305863
	   55 D(1,11,12,4)    =   -123.530797    -0.000107    -0.354747  -123.885544
	   56 D(2,1,9,6)      =   -117.764406    -0.000065    -0.364561  -118.128967
	   57 D(2,1,9,10)     =     -2.125520    -0.000015    -0.129104    -2.254624
	   58 D(2,1,11,3)     =   -165.705139     0.000036     0.003259  -165.701880
	   59 D(2,1,11,4)     =    -44.986652     0.000003    -0.140487   -45.127139
	   60 D(2,1,11,12)    =     76.018537    -0.000008    -0.141735    75.876802
	   61 D(3,4,11,12)    =    115.542443    -0.000402    -1.189382   114.353061
	   62 D(3,4,12,11)    =    -38.219176    -0.000238    -0.725842   -38.945018
	   63 D(3,11,1,9)     =    -61.673520    -0.000101    -0.363087   -62.036607
	   64 D(3,11,1,13)    =     50.877500    -0.000045    -0.175639    50.701861
	   65 D(3,11,4,12)    =   -115.542443     0.000402     1.189382  -114.353061
	   66 D(3,11,12,4)    =    115.966026    -0.000392    -1.157433   114.808593
	   67 D(3,12,4,11)    =     38.219176     0.000238     0.725842    38.945018
	   68 D(3,12,11,4)    =   -115.966026     0.000392     1.157433  -114.808593
	   69 D(4,3,11,12)    =   -116.345457     0.000378     1.131467  -115.213990
	   70 D(4,3,12,11)    =     37.274245     0.000243     0.700856    37.975100
	   71 D(4,11,1,9)     =     59.044968    -0.000134    -0.506833    58.538135
	   72 D(4,11,1,13)    =    171.595987    -0.000077    -0.319384   171.276603
	   73 D(4,11,3,12)    =    116.345457    -0.000378    -1.131467   115.213990
	   74 D(4,12,3,11)    =    -37.274245    -0.000243    -0.700856   -37.975100
	   75 D(5,6,9,10)     =     81.568083    -0.000006    -0.073054    81.495029
	   76 D(6,9,1,11)     =    120.732897    -0.000100    -0.468660   120.264238
	   77 D(6,9,1,13)     =      6.194640    -0.000027    -0.105335     6.089305
	   78 D(7,6,9,10)     =    -38.978387    -0.000007    -0.078226   -39.056613
	   79 D(8,6,9,10)     =   -159.909099    -0.000005    -0.063430  -159.972530
	   80 D(9,1,11,12)    =   -179.949844    -0.000145    -0.508081  -180.457925
	   81 D(10,9,1,11)    =   -123.628217    -0.000050    -0.233202  -123.861419
	   82 D(10,9,1,13)    =    121.833526     0.000023     0.130123   121.963648
	   83 D(11,3,4,12)    =     37.775700     0.000245     0.730255    38.505955
	   84 D(11,4,3,12)    =    -37.775700    -0.000245    -0.730255   -38.505955
	   85 D(12,11,1,13)   =    -67.398824    -0.000088    -0.320633   -67.719457
	   86 R(3,6)          =      3.476461    -0.004500     0.003569     3.480030
	   87 R(4,6)          =      4.125654     0.190856     0.018470     4.144124
	 ---------------------------------------------------------------------------
	Successfully symmetrized geometry.

  ==> Convergence Check <==

  Measures of convergence in internal coordinates in au.
  Criteria marked as inactive (o), active & met (*), and active & unmet ( ).
  ---------------------------------------------------------------------------------------------
   Step     Total Energy     Delta E     MAX Force     RMS Force      MAX Disp      RMS Disp   
  ---------------------------------------------------------------------------------------------
    Convergence Criteria    1.00e-06 *    3.00e-04 *             o    1.20e-03 *             o
  ---------------------------------------------------------------------------------------------
      2   -1647.86244241   -2.78e-01      2.24e-01      4.93e-02 o    2.39e-01      5.33e-02 o  ~
  ---------------------------------------------------------------------------------------------

	Writing optimization data to binary file.
	Structure for next step:
	Cartesian Geometry (in Angstrom)
	    C     0.0139456634  -0.1341095972  -1.1880868572
	    O    -1.0716767736  -0.2665088972  -1.8761225519
	   CL     1.2175211594   0.1839870473   1.0202395363
	   CL    -1.1860498984   0.3419052178   1.0007632066
	    H     0.9794533730   3.0710145247  -2.1192008626
	    C     1.2085247058   2.0235503167  -1.9338312082
	    H     1.4131947284   1.5060114655  -2.8743566725
	    H     2.0602305751   1.9450250978  -1.2605767306
	    O     0.0842813937   1.4438620445  -1.2861594550
	    H    -0.8101912309   1.1033528923  -1.8824568564
	    C    -0.0300335182  -0.3410953288   0.3615299027
	   CL    -0.1118244204  -1.7972691908   0.7033843248
	    H     0.9693735553  -0.5273451295  -1.5772747299
			--------------------------
			 OPTKING Finished Execution 
			--------------------------

    Structure for next step:
    Molecular point group: c1
    Full point group: C1

    Geometry (in Angstrom), charge = 0, multiplicity = 1:

    C            0.011954885199    -0.134709908638    -1.198055211338
    O           -1.073667551864    -0.267109208677    -1.886090906016
    CL           1.215530381112     0.183386735877     1.010271182165
    CL          -1.188040676674     0.341304906326     0.990794852458
    H            0.977462594808     3.070414213219    -2.129169216746
    C            1.206533927572     2.022950005279    -1.943799562361
    H            1.411203950169     1.505411154072    -2.884325026668
    H            2.058239796828     1.944424786345    -1.270545084680
    O            0.082290615504     1.443261733072    -1.296127809151
    H           -0.812182009106     1.102752580809    -1.892425210532
    C           -0.032024296395    -0.341695640301     0.351561548619
    CL          -0.113815198632    -1.797869502300     0.693415970708
    H            0.967382777087    -0.527945440959    -1.587243084019

gradient() will perform analytic gradient computation.

*** tstart() called on localhost.localdomain
*** at Thu Jan 17 16:30:33 2019

   => Loading Basis Set <=

    Name: 6-311++G(D,P)
    Role: ORBITAL
    Keyword: BASIS
    atoms 1, 6, 11       entry C          line   119 file /root/psi4conda/share/psi4/basis/6-311ppg_d_p_.gbs 
    atoms 2, 9           entry O          line   161 file /root/psi4conda/share/psi4/basis/6-311ppg_d_p_.gbs 
    atoms 3-4, 12        entry CL         line   458 file /root/psi4conda/share/psi4/basis/6-311ppg_d_p_.gbs 
[...]
	 R(1,11)          =         2.929610	       1.550283
	 R(1,13)          =         2.084157	       1.102889
	 R(3,4)           =         5.504291	       2.912745
	 R(3,11)          =         3.374572	       1.785747
	 R(3,12)          =         5.492745	       2.906636
	 R(4,11)          =         3.328893	       1.761574
	 R(4,12)          =         5.494377	       2.907499
	 R(5,6)           =         2.055524	       1.087736
	 R(6,7)           =         2.064580	       1.092529
	 R(6,8)           =         2.056652	       1.088333
	 R(6,9)           =         2.709415	       1.433761
	 R(9,10)          =         2.139168	       1.131999
	 R(11,12)         =         3.353095	       1.774382
	 B(1,9,6)         =         2.055373	     117.764191
	 B(1,9,10)        =         1.255449	      71.931941
	 B(1,11,3)        =         1.896672	     108.671293
	 B(1,11,4)        =         1.941505	     111.240042
	 B(1,11,12)       =         1.856140	     106.348972
	 B(2,1,9)         =         1.670632	      95.720145
	 B(2,1,11)        =         2.071248	     118.673768
	 B(2,1,13)        =         2.100992	     120.377966
	 B(3,4,11)        =         0.612194	      35.076136
	 B(3,4,12)        =         1.045813	      59.920676
	 B(3,11,4)        =         1.926678	     110.390526
	 B(3,11,12)       =         1.910434	     109.459833
	 B(3,12,4)        =         1.049454	      60.129258
	 B(3,12,11)       =         0.617837	      35.399444
	 B(4,3,11)        =         0.602720	      34.533338
	 B(4,3,12)        =         1.046326	      59.950066
	 B(4,11,12)       =         1.930756	     110.624173
	 B(4,12,11)       =         0.602911	      34.544282
	 B(5,6,7)         =         1.928473	     110.493338
	 B(5,6,8)         =         1.920569	     110.040479
	 B(5,6,9)         =         1.874747	     107.415077
	 B(6,9,10)        =         2.083113	     119.353606
	 B(7,6,8)         =         1.931538	     110.668992
	 B(7,6,9)         =         1.923693	     110.219513
	 B(8,6,9)         =         1.883464	     107.914520
	 B(9,1,11)        =         1.838844	     105.357994
	 B(9,1,13)        =         1.843972	     105.651805
	 B(11,1,13)       =         1.888017	     108.175386
	 B(11,3,12)       =         0.613321	      35.140722
	 B(11,4,12)       =         0.607925	      34.831545
	 D(1,9,6,5)       =         2.892405	     165.722584
	 D(1,9,6,7)       =         0.790438	      45.288762
	 D(1,9,6,8)       =        -1.320643	     -75.667288
	 D(1,11,3,4)      =         2.133617	     122.247228
	 D(1,11,3,12)     =        -2.020306	    -115.755018
	 D(1,11,4,3)      =        -2.107035	    -120.724185
	 D(1,11,4,12)     =         2.058914	     117.967065
	 D(1,11,12,3)     =         2.045967	     117.225293
	 D(1,11,12,4)     =        -2.110403	    -120.917202
	 D(2,1,9,6)       =        -2.019195	    -115.691342
	 D(2,1,9,10)      =        -0.024884	      -1.425722
	 D(2,1,11,3)      =        -2.926470	    -167.674356
	 D(2,1,11,4)      =        -0.801878	     -45.944205
	 D(2,1,11,12)     =         1.301606	      74.576543
	 D(3,4,11,12)     =         2.117237	     121.308750
	 D(3,4,12,11)     =        -0.603334	     -34.568470
	 D(3,11,1,9)      =        -1.084341	     -62.128176
	 D(3,11,1,13)     =         0.881279	      50.493593
	 D(3,11,4,12)     =        -2.117237	    -121.308750
	 D(3,11,12,4)     =         2.126815	     121.857505
	 D(3,12,4,11)     =         0.603334	      34.568470
	 D(3,12,11,4)     =        -2.126815	    -121.857505
	 D(4,3,11,12)     =        -2.129262	    -121.997754
	 D(4,3,12,11)     =         0.588857	      33.739049
	 D(4,11,1,9)      =         1.040251	      59.601974
	 D(4,11,1,13)     =         3.005871	     172.223743
	 D(4,11,3,12)     =         2.129262	     121.997754
	 D(4,12,3,11)     =        -0.588857	     -33.739049
	 D(5,6,9,10)      =         1.427862	      81.810479
	 D(6,9,1,11)      =         2.137430	     122.465691
	 D(6,9,1,13)      =         0.141010	       8.079275
	 D(7,6,9,10)      =        -0.674104	     -38.623343
	 D(8,6,9,10)      =        -2.785186	    -159.579393
	 D(9,1,11,12)     =        -3.139451	    -179.877277
	 D(10,9,1,11)     =        -2.151444	    -123.268689
	 D(10,9,1,13)     =         2.135321	     122.344895
	 D(11,3,4,12)     =         0.599144	      34.328445
	 D(11,4,3,12)     =        -0.599144	     -34.328445
	 D(12,11,1,13)    =        -1.173830	     -67.255508
	 R(3,6)           =         6.821243	       3.609646
	 R(4,6)           =         8.321432	       4.403512

	Current energy   :     -1648.2436075788

	Energy change for the previous step:
		Projected    :        -0.0000002493
		Actual       :        -0.0000000094

	Performing Bofill update.
	Previous computed or guess Hessian on step 1.
	Steps to be used in Hessian update: 24 23
	Taking PRFO optimization step.
	Maximizing along 1 lowest eigenvalue of Hessian.

 RFO min eigenvalues
 -0.000000 -0.000000 -0.000000 -0.000000 -0.000000 -0.000000 -0.000000 -0.000000
 -0.000000 -0.000000 -0.000000 -0.000000 -0.000000 -0.000000 -0.000000 -0.000000
 -0.000000 -0.000000 -0.000000 -0.000000 -0.000000 -0.000000 -0.000000 -0.000000
 -0.000000 -0.000000 -0.000000 -0.000000 -0.000000  0.000000  0.000000  0.000000
  0.000000  0.000000  0.000000  0.000000  0.000000  0.000000  0.000000  0.000000
  0.000000  0.000000  0.000000  0.000000  0.000000  0.000000  0.000000  0.000000
  0.000000  0.000000  0.000000  0.000000  0.000000  0.000000  0.000000  0.002029
  0.006216  0.009690  0.027812  0.037148  0.045185  0.062101  0.067801  0.071829
  0.074895  0.093301  0.097255  0.106608  0.122609  0.138593  0.145866  0.159747
  0.160347  0.160713  0.169602  0.184483  0.267162  0.276907  0.281445  0.332462
  0.345456  0.350354  0.350991  0.379983  0.670819  1.006750  1.087680

 RFO max eigenvalues
 -0.044777  0.000000
	|RFO target step|  :        0.0057589952
	RFO gradient       :       -0.0000446728
	RFO hessian        :        0.0077566850
	Projected Delta(E) :       -0.0000001286

	Back-transformation to cartesian coordinates...
	Could not converge backtransformation.
	Using first guess instead.

	--- Internal Coordinate Step in ANG or DEG, aJ/ANG or AJ/DEG ---
	 ---------------------------------------------------------------------------
	   Coordinate                Previous        Force       Change         New 
	   ----------                --------       ------       ------       ------
	    1 H(2,10)         =      1.382407    -0.000175     0.000528     1.382935
	    2 R(1,2)          =      1.293171     0.001204     0.000011     1.293182
	    3 R(1,9)          =      1.588160    -0.000633     0.000066     1.588226
	    4 R(1,11)         =      1.550283     0.000093     0.000003     1.550286
	    5 R(1,13)         =      1.102889    -0.000062    -0.000013     1.102876
	    6 R(3,4)          =      2.912745     0.000210     0.000045     2.912790
	    7 R(3,11)         =      1.785747     0.000929     0.000022     1.785768
	    8 R(3,12)         =      2.906636     0.000374    -0.000008     2.906627
	    9 R(4,11)         =      1.761574    -0.000793    -0.000054     1.761520
	   10 R(4,12)         =      2.907499    -0.000607    -0.000125     2.907374
	   11 R(5,6)          =      1.087736    -0.000028    -0.000014     1.087722
	   12 R(6,7)          =      1.092529     0.000053     0.000001     1.092530
	   13 R(6,8)          =      1.088333     0.000042     0.000003     1.088337
	   14 R(6,9)          =      1.433761     0.000258     0.000048     1.433809
	   15 R(9,10)         =      1.131999     0.000737    -0.000182     1.131817
	   16 R(11,12)        =      1.774382    -0.000206    -0.000037     1.774344
	   17 B(1,9,6)        =    117.764191    -0.000003    -0.023045   117.741146
	   18 B(1,9,10)       =     71.931941     0.000000     0.008348    71.940288
	   19 B(1,11,3)       =    108.671293    -0.000000    -0.001501   108.669792
	   20 B(1,11,4)       =    111.240042    -0.000000    -0.000792   111.239250
	   21 B(1,11,12)      =    106.348972    -0.000000     0.000747   106.349719
	   22 B(2,1,9)        =     95.720145     0.000002     0.011034    95.731179
	   23 B(2,1,11)       =    118.673768    -0.000001    -0.005493   118.668275
	   24 B(2,1,13)       =    120.377966    -0.000000    -0.003537   120.374429
	   25 B(3,4,11)       =     35.076136     0.000001    -0.001171    35.074965
	   26 B(3,4,12)       =     59.920676     0.000001     0.000713    59.921389
	   27 B(3,11,4)       =    110.390526     0.000000     0.004010   110.394536
	   28 B(3,11,12)      =    109.459833    -0.000001     0.000236   109.460069
	   29 B(3,12,4)       =     60.129258     0.000001     0.002535    60.131793
	   30 B(3,12,11)      =     35.399444     0.000002     0.000556    35.400000
	   31 B(4,3,11)       =     34.533338    -0.000002    -0.002839    34.530499
	   32 B(4,3,12)       =     59.950066    -0.000002    -0.003248    59.946819
	   33 B(4,11,12)      =    110.624173     0.000001    -0.002822   110.621351
	   34 B(4,12,11)      =     34.544282    -0.000001     0.001213    34.545495
	   35 B(5,6,7)        =    110.493338     0.000000     0.001465   110.494803
	   36 B(5,6,8)        =    110.040479    -0.000000     0.001040   110.041519
	   37 B(5,6,9)        =    107.415077    -0.000001    -0.005100   107.409977
	   38 B(6,9,10)       =    119.353606     0.000001    -0.028687   119.324919
	   39 B(7,6,8)        =    110.668992    -0.000000     0.001090   110.670083
	   40 B(7,6,9)        =    110.219513    -0.000001    -0.005940   110.213573
	   41 B(8,6,9)        =    107.914520     0.000002     0.007372   107.921893
	   42 B(9,1,11)       =    105.357994     0.000001    -0.002823   105.355171
	   43 B(9,1,13)       =    105.651805    -0.000001     0.002224   105.654029
	   44 B(11,1,13)      =    108.175386     0.000000     0.001271   108.176657
	   45 B(11,3,12)      =     35.140722    -0.000001    -0.000792    35.139931
	   46 B(11,4,12)      =     34.831545     0.000000     0.001609    34.833155
	   47 D(1,9,6,5)      =    165.722584    -0.000000    -0.042089   165.680495
	   48 D(1,9,6,7)      =     45.288762    -0.000000    -0.037303    45.251459
	   49 D(1,9,6,8)      =    -75.667288    -0.000000    -0.039680   -75.706968
	   50 D(1,11,3,4)     =    122.247228    -0.000000     0.000580   122.247808
	   51 D(1,11,3,12)    =   -115.755018     0.000000    -0.000186  -115.755204
	   52 D(1,11,4,3)     =   -120.724185    -0.000000    -0.000281  -120.724465
	   53 D(1,11,4,12)    =    117.967065     0.000000    -0.001377   117.965688
	   54 D(1,11,12,3)    =    117.225293    -0.000000    -0.001237   117.224056
	   55 D(1,11,12,4)    =   -120.917202    -0.000000     0.002101  -120.915102
	   56 D(2,1,9,6)      =   -115.691342    -0.000000     0.048825  -115.642517
	   57 D(2,1,9,10)     =     -1.425722     0.000000     0.022596    -1.403125
	   58 D(2,1,11,3)     =   -167.674356    -0.000001    -0.086700  -167.761055
	   59 D(2,1,11,4)     =    -45.944205    -0.000001    -0.083199   -46.027404
	   60 D(2,1,11,12)    =     74.576543    -0.000000    -0.086612    74.489931
	   61 D(3,4,11,12)    =    121.308750    -0.000000     0.001096   121.309846
	   62 D(3,4,12,11)    =    -34.568470    -0.000000     0.001893   -34.566576
	   63 D(3,11,1,9)     =    -62.128176    -0.000000    -0.077450   -62.205627
	   64 D(3,11,1,13)    =     50.493593    -0.000000    -0.075693    50.417899
	   65 D(3,11,4,12)    =   -121.308750     0.000000    -0.001096  -121.309846
	   66 D(3,11,12,4)    =    121.857505     0.000000     0.003338   121.860843
	   67 D(3,12,4,11)    =     34.568470     0.000000    -0.001893    34.566576
	   68 D(3,12,11,4)    =   -121.857505    -0.000000    -0.003338  -121.860843
	   69 D(4,3,11,12)    =   -121.997754    -0.000000     0.000766  -121.996988
	   70 D(4,3,12,11)    =     33.739049    -0.000000    -0.001181    33.737868
	   71 D(4,11,1,9)     =     59.601974    -0.000000    -0.073950    59.528024
	   72 D(4,11,1,13)    =    172.223743    -0.000000    -0.072193   172.151550
	   73 D(4,11,3,12)    =    121.997754     0.000000    -0.000766   121.996988
	   74 D(4,12,3,11)    =    -33.739049     0.000000     0.001181   -33.737868
	   75 D(5,6,9,10)     =     81.810479    -0.000000    -0.027244    81.783235
	   76 D(6,9,1,11)     =    122.465691    -0.000000     0.051298   122.516989
	   77 D(6,9,1,13)     =      8.079275    -0.000000     0.050138     8.129413
	   78 D(7,6,9,10)     =    -38.623343     0.000000    -0.022458   -38.645801
	   79 D(8,6,9,10)     =   -159.579393     0.000000    -0.024835  -159.604228
	   80 D(9,1,11,12)    =   -179.877277     0.000000    -0.077363  -179.954640
	   81 D(10,9,1,11)    =   -123.268689     0.000000     0.025070  -123.243619
	   82 D(10,9,1,13)    =    122.344895     0.000000     0.023909   122.368805
	   83 D(11,3,4,12)    =     34.328445    -0.000000     0.000842    34.329288
	   84 D(11,4,3,12)    =    -34.328445     0.000000    -0.000842   -34.329288
	   85 D(12,11,1,13)   =    -67.255508     0.000000    -0.075606   -67.331114
	   86 R(3,6)          =      3.609646     0.000072     0.001411     3.611057
	   87 R(4,6)          =      4.403512    -0.000297    -0.000816     4.402696
	 ---------------------------------------------------------------------------
	Successfully symmetrized geometry.

  ==> Convergence Check <==

  Measures of convergence in internal coordinates in au.
  Criteria marked as inactive (o), active & met (*), and active & unmet ( ).
  ---------------------------------------------------------------------------------------------
   Step     Total Energy     Delta E     MAX Force     RMS Force      MAX Disp      RMS Disp   
  ---------------------------------------------------------------------------------------------
    Convergence Criteria    1.00e-06 *    3.00e-04 *             o    1.20e-03 *             o
  ---------------------------------------------------------------------------------------------
     25   -1648.24360758   -9.36e-09 *    1.46e-04 *    3.07e-05 o    2.67e-03      6.17e-04 o  ~
  ---------------------------------------------------------------------------------------------


  **** Optimization is complete! (in 25 steps) ****

  ==> Optimization Summary <==

  Measures of convergence in internal coordinates in au.
  --------------------------------------------------------------------------------------------------------------- ~
   Step         Total Energy             Delta E       MAX Force       RMS Force        MAX Disp        RMS Disp  ~
  --------------------------------------------------------------------------------------------------------------- ~
      1   -1647.584079939899  -1647.584079939899      0.34280276      0.07542673      0.23475151      0.05213151  ~
      2   -1647.862442411816     -0.278362471917      0.22361450      0.04934901      0.23925303      0.05333647  ~
      3   -1648.044658474392     -0.182216062576      0.13741084      0.03044665      0.21862323      0.04889491  ~
      4   -1648.146429192475     -0.101770718083      0.08252914      0.01826480      0.21770030      0.04845742  ~
      5   -1648.204059011969     -0.057629819494      0.04476125      0.00985243      0.19359880      0.04345714  ~
      6   -1648.230363980280     -0.026304968311      0.02190119      0.00479334      0.15208274      0.03609667  ~
      7   -1648.240319369994     -0.009955389714      0.00943308      0.00218169      0.10777592      0.03047551  ~
      8   -1648.243950364255     -0.003630994261      0.01030604      0.00175782      0.20768583      0.03960660  ~
      9   -1648.248350318512     -0.004399954257      0.01852920      0.00333836      0.20963575      0.05333448  ~
     10   -1648.244409127979      0.003941190532      0.00909281      0.00165393      0.23769994      0.05314658  ~
     11   -1648.242032867763      0.002376260216      0.01070788      0.00166921      0.08417685      0.01926778  ~
     12   -1648.242735750262     -0.000702882498      0.00545681      0.00121732      0.08966326      0.02104407  ~
     13   -1648.242975931257     -0.000240180995      0.00212517      0.00056334      0.05887255      0.02061152  ~
     14   -1648.243188267626     -0.000212336369      0.00539526      0.00096562      0.15424090      0.04132685  ~
     15   -1648.243139640596      0.000048627030      0.00616714      0.00140725      0.20972697      0.05037240  ~
     16   -1648.242666032818      0.000473607777      0.01092897      0.00233904      0.07104754      0.02066143  ~
     17   -1648.242983281684     -0.000317248865      0.00739739      0.00158618      0.10834912      0.03032050  ~
     18   -1648.243524345647     -0.000541063964      0.00347583      0.00068723      0.13196970      0.03520086  ~
     19   -1648.243434590288      0.000089755359      0.00541665      0.00107630      0.04502250      0.01433857  ~
     20   -1648.243593771689     -0.000159181401      0.00067547      0.00017646      0.04297986      0.01193611  ~
     21   -1648.243595632361     -0.000001860672      0.00058056      0.00015026      0.01997662      0.00605286  ~
     22   -1648.243604422307     -0.000008789945      0.00039534      0.00008589      0.00786348      0.00201075  ~
     23   -1648.243606056885     -0.000001634578      0.00039628      0.00007077      0.01292539      0.00383691  ~
     24   -1648.243607569424     -0.000001512539      0.00037283      0.00006746      0.00537025      0.00137721  ~
     25   -1648.243607578780     -0.000000009357      0.00014609      0.00003066      0.00266709      0.00061744  ~
  --------------------------------------------------------------------------------------------------------------- ~

	Writing optimization data to binary file.
	Final energy is  -1648.2436075787803
	Final (previous) structure:
	Cartesian Geometry (in Angstrom)
	    C     0.0407309129  -0.0595315425  -1.1735818100
	    O    -1.0158974427  -0.2786456286  -1.8861947237
	   CL     1.4236900078   0.3809750083   1.1194936084
	   CL    -1.4879664452   0.3253348529   1.0625285779
	    H     0.7771731241   3.1761018548  -2.2286081223
	    C     1.0863403386   2.1575911609  -2.0045062474
	    H     1.3172971963   1.6166329539  -2.9251810376
	    H     1.9469315894   2.1670923999  -1.3383516052
	    O     0.0018851075   1.5218448103  -1.3149749081
	    H    -0.8604458256   1.0947666934  -1.9111384407
	    C    -0.0191845694  -0.3370877376   0.3504748857
	   CL     0.0264152164  -2.1008232529   0.5391219291
	    H     1.0344224425  -0.3667455396  -1.5404058329
	Saving final (previous) structure.
	Removing binary optimization data file.
			--------------------------
			 OPTKING Finished Execution 
			--------------------------

    Final optimized geometry and variables:
    Molecular point group: c1
    Full point group: C1

    Geometry (in Angstrom), charge = 0, multiplicity = 1:

    C            0.040730912894    -0.059531542501    -1.173581810046
    O           -1.015897442692    -0.278645628566    -1.886194723693
    CL           1.423690007801     0.380975008283     1.119493608441
    CL          -1.487966445222     0.325334852871     1.062528577890
    H            0.777173124071     3.176101854822    -2.228608122285
    C            1.086340338636     2.157591160917    -2.004506247428
    H            1.317297196309     1.616632953895    -2.925181037624
    H            1.946931589372     2.167092399907    -1.338351605224
    O            0.001885107541     1.521844810258    -1.314974908105
    H           -0.860445825616     1.094766693436    -1.911138440706
    C           -0.019184569429    -0.337087737562     0.350474885726
    CL           0.026415216406    -2.100823252896     0.539121929055
    H            1.034422442460    -0.366745539619    -1.540405832948

	Removing binary optimization data file.
	Cleaning optimization helper files.

    Psi4 stopped on: Thursday, 17 January 2019 04:38PM
    Psi4 wall time for execution: 0:08:36.88

*** Psi4 exiting successfully. Buy a developer a beer!
