
    -----------------------------------------------------------------------
          Psi4: An Open-Source Ab Initio Electronic Structure Package
                               Psi4 1.2.1 release

                         Git: Rev {HEAD} 406f4de 


    R. M. Parrish, L. A. Burns, D. G. A. Smith, A. C. Simmonett,
    A. E. DePrince III, E. G. Hohenstein, U. Bozkaya, A. Yu. Sokolov,
    R. Di Remigio, R. M. Richard, J. F. Gonthier, A. M. James,
    H. R. McAlexander, A. Kumar, M. Saitow, X. Wang, B. P. Pritchard,
    P. Verma, H. F. Schaefer III, K. Patkowski, R. A. King, E. F. Valeev,
    F. A. Evangelista, J. M. Turney, T. D. Crawford, and C. D. Sherrill,
    J. Chem. Theory Comput. 13(7) pp 3185--3197 (2017).
    (doi: 10.1021/acs.jctc.7b00174)


                         Additional Contributions by
    P. Kraus, H. Kruse, M. H. Lechner, M. C. Schieber, and R. A. Shaw

    -----------------------------------------------------------------------


    Psi4 started on: Thursday, 17 January 2019 01:20PM

    Process ID: 12177
    Host:       localhost.localdomain
    PSIDATADIR: /root/psi4conda/share/psi4
    Memory:     500.0 MiB
    Threads:    1
    
  ==> Input File <==

--------------------------------------------------------------------------
molecule{
0 1
    C           -0.108047614975    -0.645236287278     0.050653622385
    O           -1.120282379357    -0.619960924724    -0.731156964596
    O            0.225504235194     0.911683533582    -0.083939935327
    H           -0.718435396744     0.657922409419    -0.701049957262
    H            1.355439594890     2.315563620587    -1.044551650979
    C            1.408542471208     1.254452358978    -0.810960003580
    H            1.473574826710     0.670672552934    -1.733348938624
    H            2.273372539821     1.062369399097    -0.177825262264
    F           -0.343773984577    -0.817235337565     1.371280879685
    H            0.812504521273    -1.184591854916    -0.204078075766
 
}

set{
   basis 6-311++G(d,p)
   freeze_core True
   normal_modes_write True
}


set_num_threads(16)
frequencies('m06-2x')
--------------------------------------------------------------------------
  Threads set to 16 by Python driver.
gradient() will perform analytic gradient computation.

*** tstart() called on localhost.localdomain
*** at Thu Jan 17 13:20:59 2019

   => Loading Basis Set <=

    Name: 6-311++G(D,P)
    Role: ORBITAL
    Keyword: BASIS
    atoms 1, 6         entry C          line   119 file /root/psi4conda/share/psi4/basis/6-311ppg_d_p_.gbs 
    atoms 2-3          entry O          line   161 file /root/psi4conda/share/psi4/basis/6-311ppg_d_p_.gbs 
    atoms 4-5, 7-8, 10 entry H          line    42 file /root/psi4conda/share/psi4/basis/6-311ppg_d_p_.gbs 
    atoms 9            entry F          line   182 file /root/psi4conda/share/psi4/basis/6-311ppg_d_p_.gbs 


         ---------------------------------------------------------
                                   SCF
            by Justin Turney, Rob Parrish, Andy Simmonett
                             and Daniel Smith
                              RKS Reference
                       16 Threads,    500 MiB Core
         ---------------------------------------------------------

  ==> Geometry <==

    Molecular point group: c1
    Full point group: C1

    Geometry (in Angstrom), charge = 0, multiplicity = 1:

       Center              X                  Y                   Z               Mass       
    ------------   -----------------  -----------------  -----------------  -----------------
         C           -0.108047614975    -0.645236287278     0.050653622385    12.000000000000
         O           -1.120282379357    -0.619960924724    -0.731156964596    15.994914619560
         O            0.225504235194     0.911683533582    -0.083939935327    15.994914619560
         H           -0.718435396744     0.657922409419    -0.701049957262     1.007825032070
         H            1.355439594890     2.315563620587    -1.044551650979     1.007825032070
         C            1.408542471208     1.254452358978    -0.810960003580    12.000000000000
         H            1.473574826710     0.670672552934    -1.733348938624     1.007825032070
         H            2.273372539821     1.062369399097    -0.177825262264     1.007825032070
         F           -0.343773984577    -0.817235337565     1.371280879685    18.998403224000
         H            0.812504521273    -1.184591854916    -0.204078075766     1.007825032070

  Running in c1 symmetry.

  Rotational constants: A =      0.30756  B =      0.12483  C =      0.09981 [cm^-1]
  Rotational constants: A =   9220.47317  B =   3742.43424  C =   2992.08124 [MHz]
  Nuclear repulsion =  197.533194881770157

  Charge       = 0
  Multiplicity = 1
  Electrons    = 42
  Nalpha       = 21
  Nbeta        = 21

  ==> Algorithm <==

  SCF Algorithm Type is DF.
  DIIS enabled.
  MOM disabled.
  Fractional occupation disabled.
  Guess Type is SAD.
  Energy threshold   = 1.00e-08
  Density threshold  = 1.00e-08
  Integral threshold = 0.00e+00

  ==> Primary Basis <==

  Basis Set: 6-311++G(D,P)
    Blend: 6-311++G(D,P)
    Number of shells: 75
    Number of basis function: 145
    Number of Cartesian functions: 150
    Spherical Harmonics?: true
    Max angular momentum: 2

  ==> DFT Potential <==

   => Composite Functional: M06-2X <= 

    Hybrid M06-2X Meta-GGA XC Functional

    Y. Zhao and D. G. Truhlar,  Theor. Chem. Acc., 120, 215, 2008


    Deriv               =              1
    GGA                 =           TRUE
    Meta                =           TRUE

    Exchange Hybrid     =           TRUE
    MP2 Hybrid          =          FALSE

   => Exchange Functionals <=

    1.0000   XC_HYB_MGGA_X_M06_2X

   => Exact (HF) Exchange <=

    0.5400               HF 

   => Correlation Functionals <=

    1.0000   XC_MGGA_C_M06_2X

   => Molecular Quadrature <=

    Radial Scheme       =       TREUTLER
    Pruning Scheme      =           FLAT
    Nuclear Scheme      =       TREUTLER

    BS radius alpha     =              1
    Pruning alpha       =              1
    Radial Points       =             75
    Spherical Points    =            302
    Total Points        =         226500
    Total Blocks        =           1757
    Max Points          =            256
    Max Functions       =            144

   => Loading Basis Set <=

    Name: (6-311++G(D,P) AUX)
    Role: JKFIT
    Keyword: DF_BASIS_SCF
    atoms 1, 6         entry C          line   162 file /root/psi4conda/share/psi4/basis/aug-cc-pvtz-jkfit.gbs 
    atoms 2-3          entry O          line   286 file /root/psi4conda/share/psi4/basis/aug-cc-pvtz-jkfit.gbs 
    atoms 4-5, 7-8, 10 entry H          line    70 file /root/psi4conda/share/psi4/basis/aug-cc-pvtz-jkfit.gbs 
    atoms 9            entry F          line   348 file /root/psi4conda/share/psi4/basis/aug-cc-pvtz-jkfit.gbs 

  ==> Pre-Iterations <==

   -------------------------------------------------------
    Irrep   Nso     Nmo     Nalpha   Nbeta   Ndocc  Nsocc
   -------------------------------------------------------
     A        145     145       0       0       0       0
   -------------------------------------------------------
    Total     145     145      21      21      21       0
   -------------------------------------------------------

  ==> Integral Setup <==

  DFHelper Memory: AOs need 0.152 [GiB]; user supplied 0.366 [GiB]. Using in-core AOs.

  ==> MemDFJK: Density-Fitted J/K Matrices <==

    J tasked:                   Yes
    K tasked:                   Yes
    wK tasked:                   No
    OpenMP threads:              16
    Memory (MB):                375
    Algorithm:                 Core
    Schwarz Cutoff:           1E-12
    Mask sparsity (%):       2.5398
    Fitting Condition:        1E-12

   => Auxiliary Basis Set <=

  Basis Set: (6-311++G(D,P) AUX)
    Blend: AUG-CC-PVTZ-JKFIT
    Number of shells: 220
    Number of basis function: 750
    Number of Cartesian functions: 930
    Spherical Harmonics?: true
    Max angular momentum: 4

  Minimum eigenvalue in the overlap matrix is 5.4888502332E-04.
  Using Symmetric Orthogonalization.

  SCF Guess: Superposition of Atomic Densities via on-the-fly atomic UHF.

  ==> Iterations <==

                           Total Energy        Delta E     RMS |[F,P]|

   @DF-RKS iter   0:  -330.62616480455233   -3.30626e+02   7.81821e-02 
   @DF-RKS iter   1:  -329.28506131766062    1.34110e+00   1.36513e-02 
   @DF-RKS iter   2:  -329.24995770870521    3.51036e-02   1.90508e-02 DIIS
   @DF-RKS iter   3:  -329.40790962819688   -1.57952e-01   2.05484e-03 DIIS
   @DF-RKS iter   4:  -329.40936761855795   -1.45799e-03   1.18647e-03 DIIS
   @DF-RKS iter   5:  -329.41025733787126   -8.89719e-04   2.55375e-04 DIIS
   @DF-RKS iter   6:  -329.41029527865231   -3.79408e-05   8.63358e-05 DIIS
   @DF-RKS iter   7:  -329.41030026691368   -4.98826e-06   3.17132e-05 DIIS
   @DF-RKS iter   8:  -329.41030077240271   -5.05489e-07   7.87721e-06 DIIS
   @DF-RKS iter   9:  -329.41030081038724   -3.79845e-08   2.54751e-06 DIIS
   @DF-RKS iter  10:  -329.41030081486980   -4.48256e-09   4.32432e-07 DIIS
   @DF-RKS iter  11:  -329.41030081513361   -2.63810e-10   1.44706e-07 DIIS
   @DF-RKS iter  12:  -329.41030081515407   -2.04636e-11   5.17355e-08 DIIS
   @DF-RKS iter  13:  -329.41030081515692   -2.84217e-12   7.44216e-09 DIIS

  ==> Post-Iterations <==

    Orbital Energies [Eh]
    ---------------------

    Doubly Occupied:                                                      

       1A    -25.250239     2A    -19.702228     3A    -19.602957  
       4A    -10.736558     5A    -10.625194     6A     -1.383587  
       7A     -1.243480     8A     -1.132853     9A     -0.837850  
      10A     -0.763830    11A     -0.659443    12A     -0.646612  
      13A     -0.604749    14A     -0.573796    15A     -0.552312  
      16A     -0.527040    17A     -0.480365    18A     -0.471914  
      19A     -0.448426    20A     -0.372271    21A     -0.367063  

    Virtual:                                                              

      22A     -0.011674    23A      0.010560    24A      0.020121  
      25A      0.023038    26A      0.044790    27A      0.057719  
      28A      0.070191    29A      0.074010    30A      0.080847  
      31A      0.101992    32A      0.114422    33A      0.120663  
      34A      0.130852    35A      0.133718    36A      0.180444  
      37A      0.182207    38A      0.188323    39A      0.206797  
      40A      0.215246    41A      0.226802    42A      0.246547  
      43A      0.250039    44A      0.272390    45A      0.277984  
      46A      0.305567    47A      0.320463    48A      0.322683  
      49A      0.335736    50A      0.351849    51A      0.376427  
      52A      0.392524    53A      0.394319    54A      0.432233  
      55A      0.445920    56A      0.469787    57A      0.497014  
      58A      0.519485    59A      0.567419    60A      0.600690  
      61A      0.643280    62A      0.648102    63A      0.671635  
      64A      0.696023    65A      0.703510    66A      0.750224  
      67A      0.901634    68A      0.990711    69A      1.009032  
      70A      1.039233    71A      1.071166    72A      1.135546  
      73A      1.180179    74A      1.197554    75A      1.216713  
      76A      1.236180    77A      1.330882    78A      1.349816  
      79A      1.398472    80A      1.454542    81A      1.463009  
      82A      1.504162    83A      1.535766    84A      1.540661  
      85A      1.550426    86A      1.583272    87A      1.612752  
      88A      1.664973    89A      1.672557    90A      1.712423  
      91A      1.752800    92A      1.794909    93A      1.804550  
      94A      1.831485    95A      1.958360    96A      2.003036  
      97A      2.040907    98A      2.070654    99A      2.135929  
     100A      2.145654   101A      2.228312   102A      2.429215  
     103A      2.446831   104A      2.507108   105A      2.519878  
     106A      2.559698   107A      2.592744   108A      2.682457  
     109A      2.719408   110A      2.762540   111A      2.893835  
     112A      2.910006   113A      2.974636   114A      3.078563  
     115A      3.106119   116A      3.168408   117A      3.225375  
     118A      3.382358   119A      3.423332   120A      3.551101  
     121A      3.719663   122A      3.797316   123A      3.818183  
     124A      3.875618   125A      3.888115   126A      3.936211  
     127A      4.009115   128A      4.090663   129A      4.143773  
     130A      4.220265   131A      4.856894   132A      5.204030  
     133A      5.217734   134A      5.258088   135A      5.303453  
     136A      5.616453   137A      5.743784   138A      6.493009  
     139A      6.508683   140A      6.829713   141A     23.794713  
     142A     23.953307   143A     49.963647   144A     50.105699  
     145A     66.923727  

    Final Occupation by Irrep:
              A 
    DOCC [    21 ]

  Energy converged.

  @DF-RKS Final Energy:  -329.41030081515692

   => Energetics <=

    Nuclear Repulsion Energy =            197.5331948817701573
    One-Electron Energy =                -843.9089928666151081
    Two-Electron Energy =                 336.3539483242975621
    DFT Exchange-Correlation Energy =     -19.3884511546095979
    Empirical Dispersion Energy =           0.0000000000000000
    VV10 Nonlocal Energy =                  0.0000000000000000
    Total Energy =                       -329.4103008151569156



Properties will be evaluated at   0.000000,   0.000000,   0.000000 [a0]

Properties computed using the SCF density matrix

  Nuclear Dipole Moment: [e a0]
     X:     5.1915      Y:     4.0741      Z:    -4.9170

  Electronic Dipole Moment: [e a0]
     X:    -3.6410      Y:    -3.2732      Z:     4.3029

  Dipole Moment: [e a0]
     X:     1.5505      Y:     0.8009      Z:    -0.6141     Total:     1.8500

  Dipole Moment: [D]
     X:     3.9410      Y:     2.0357      Z:    -1.5608     Total:     4.7023


*** tstop() called on localhost.localdomain at Thu Jan 17 13:21:09 2019
Module time:
	user time   =     130.28 seconds =       2.17 minutes
	system time =       2.84 seconds =       0.05 minutes
	total time  =         10 seconds =       0.17 minutes
Total time:
	user time   =     130.28 seconds =       2.17 minutes
	system time =       2.84 seconds =       0.05 minutes
	total time  =         10 seconds =       0.17 minutes

*** tstart() called on localhost.localdomain
*** at Thu Jan 17 13:21:09 2019


         ------------------------------------------------------------
                                   SCF GRAD                          
                          Rob Parrish, Justin Turney,                
                       Andy Simmonett, and Alex Sokolov              
         ------------------------------------------------------------

  ==> Geometry <==

    Molecular point group: c1
    Full point group: C1

    Geometry (in Angstrom), charge = 0, multiplicity = 1:

       Center              X                  Y                   Z               Mass       
    ------------   -----------------  -----------------  -----------------  -----------------
         C           -0.108047614975    -0.645236287278     0.050653622385    12.000000000000
         O           -1.120282379357    -0.619960924724    -0.731156964596    15.994914619560
         O            0.225504235194     0.911683533582    -0.083939935327    15.994914619560
         H           -0.718435396744     0.657922409419    -0.701049957262     1.007825032070
         H            1.355439594890     2.315563620587    -1.044551650979     1.007825032070
         C            1.408542471208     1.254452358978    -0.810960003580    12.000000000000
         H            1.473574826710     0.670672552934    -1.733348938624     1.007825032070
         H            2.273372539821     1.062369399097    -0.177825262264     1.007825032070
         F           -0.343773984577    -0.817235337565     1.371280879685    18.998403224000
         H            0.812504521273    -1.184591854916    -0.204078075766     1.007825032070

  Nuclear repulsion =  197.533194881770157

  ==> Basis Set <==

  Basis Set: 6-311++G(D,P)
    Blend: 6-311++G(D,P)
    Number of shells: 75
    Number of basis function: 145
    Number of Cartesian functions: 150
    Spherical Harmonics?: true
    Max angular momentum: 2

  ==> DFJKGrad: Density-Fitted SCF Gradients <==

    Gradient:                    1
    J tasked:                  Yes
    K tasked:                  Yes
    wK tasked:                  No
    OpenMP threads:             16
    Integrals threads:          16
    Memory (MB):               375
    Schwarz Cutoff:          0E+00
    Fitting Condition:       1E-12

   => Auxiliary Basis Set <=

  Basis Set: (6-311++G(D,P) AUX)
    Blend: AUG-CC-PVTZ-JKFIT
    Number of shells: 220
    Number of basis function: 750
    Number of Cartesian functions: 930
    Spherical Harmonics?: true
    Max angular momentum: 4

  ==> DFT Potential <==

   => Composite Functional: M06-2X <= 

    Hybrid M06-2X Meta-GGA XC Functional

    Y. Zhao and D. G. Truhlar,  Theor. Chem. Acc., 120, 215, 2008


    Deriv               =              1
    GGA                 =           TRUE
    Meta                =           TRUE

    Exchange Hybrid     =           TRUE
    MP2 Hybrid          =          FALSE

   => Exchange Functionals <=

    1.0000   XC_HYB_MGGA_X_M06_2X

   => Exact (HF) Exchange <=

    0.5400               HF 

   => Correlation Functionals <=

    1.0000   XC_MGGA_C_M06_2X

   => Molecular Quadrature <=

    Radial Scheme       =       TREUTLER
    Pruning Scheme      =           FLAT
    Nuclear Scheme      =       TREUTLER

    BS radius alpha     =              1
    Pruning alpha       =              1
    Radial Points       =             75
    Spherical Points    =            302
    Total Points        =         226500
    Total Blocks        =           1757
    Max Points          =            256
    Max Functions       =            144


  -Total Gradient:
     Atom            X                  Y                   Z
    ------   -----------------  -----------------  -----------------
       1        0.000063666217     0.000115520246     0.000066158702
       2       -0.000014649297    -0.000003701657    -0.000028568420
       3       -0.000080003863    -0.000049639075     0.000035578106
       4        0.000003463588     0.000045252286     0.000012567945
       5        0.000006801481    -0.000013489978    -0.000010406701
       6        0.000069614569    -0.000019205645    -0.000053395552
       7       -0.000004000642    -0.000005964266    -0.000006490328
       8        0.000016522122     0.000000965805    -0.000020711240
       9        0.000005755982    -0.000013854845     0.000010568616
      10       -0.000015318762    -0.000018160393    -0.000026307246


*** tstop() called on localhost.localdomain at Thu Jan 17 13:21:11 2019
Module time:
	user time   =      40.29 seconds =       0.67 minutes
	system time =       1.78 seconds =       0.03 minutes
	total time  =          2 seconds =       0.03 minutes
Total time:
	user time   =     170.62 seconds =       2.84 minutes
	system time =       4.63 seconds =       0.08 minutes
	total time  =         12 seconds =       0.20 minutes

  Based on options and gradient (rms=8.75E-05), recommend projecting translations and projecting rotations.
hessian() will perform frequency computation by finite difference of analytic gradients.

-------------------------------------------------------------

  Using finite-differences of gradients to determine vibrational frequencies and 
  normal modes.  Resulting frequencies are only valid at stationary points.
	Generating geometries for use with 3-point formula.
	Displacement size will be 5.00e-03.
	Number of atoms is 10.
	Number of irreps is 1.
	Number of SALCS is 24.
	Translations projected? 1. Rotations projected? 1.
	Index of salcs per irrep:
	 1 :  0  1  2  3  4  5  6  7  8  9  10  11  12  13  14  15  16  17  18  19  20  21  22  23 
	Number of SALC's per irrep:
		 Irrep 1: 24
	Number of geometries (including reference) is 49.
	Number of displacements per irrep:
	  Irrep 1: 48

  //>>>>>>>>>>>>>>>>>>>>>>>>>>>>>>>>>>>//
  //    Loading displacement 1 of 49   //
  //<<<<<<<<<<<<<<<<<<<<<<<<<<<<<<<<<<<//
gradient() will perform analytic gradient computation.

*** tstart() called on localhost.localdomain
*** at Thu Jan 17 13:21:11 2019

   => Loading Basis Set <=

    Name: 6-311++G(D,P)
    Role: ORBITAL
    Keyword: BASIS
    atoms 1, 6         entry C          line   119 file /root/psi4conda/share/psi4/basis/6-311ppg_d_p_.gbs 
    atoms 2-3          entry O          line   161 file /root/psi4conda/share/psi4/basis/6-311ppg_d_p_.gbs 
    atoms 4-5, 7-8, 10 entry H          line    42 file /root/psi4conda/share/psi4/basis/6-311ppg_d_p_.gbs 
    atoms 9            entry F          line   182 file /root/psi4conda/share/psi4/basis/6-311ppg_d_p_.gbs 


         ---------------------------------------------------------
                                   SCF
            by Justin Turney, Rob Parrish, Andy Simmonett
                             and Daniel Smith
                              RKS Reference
                       16 Threads,    500 MiB Core
         ---------------------------------------------------------

  ==> Geometry <==

    Molecular point group: c1
    Full point group: C1

    Geometry (in Angstrom), charge = 0, multiplicity = 1:

       Center              X                  Y                   Z               Mass       
    ------------   -----------------  -----------------  -----------------  -----------------
         C           -0.108733152141    -0.645242080341     0.050660581205    12.000000000000
         O           -1.120104476862    -0.620038295092    -0.731168424673    15.994914619560
         O            0.225578572306     0.911695924164    -0.083948467414    15.994914619560
         H           -0.718334798495     0.657869594061    -0.701071845468     1.007825032070
         H            1.355446745339     2.315630658383    -1.044559348651     1.007825032070
         C            1.408609196039     1.254525804420    -0.810952137107    12.000000000000
         H            1.473693087952     0.670737199766    -1.733331869976     1.007825032070
         H            2.273439500796     1.062503518831    -0.177799310742     1.007825032070
         F           -0.343621764546    -0.817237100704     1.371285999419    18.998403224000
         H            0.812706933471    -1.184545856072    -0.204047253669     1.007825032070

  Running in c1 symmetry.

  Rotational constants: A =      0.30758  B =      0.12483  C =      0.09980 [cm^-1]
  Rotational constants: A =   9221.14376  B =   3742.39714  C =   2991.95592 [MHz]
  Nuclear repulsion =  197.540704376525554

  Charge       = 0
  Multiplicity = 1
  Electrons    = 42
  Nalpha       = 21
  Nbeta        = 21

  ==> Algorithm <==

  SCF Algorithm Type is DF.
  DIIS enabled.
  MOM disabled.
  Fractional occupation disabled.
  Guess Type is SAD.
  Energy threshold   = 1.00e-08
  Density threshold  = 1.00e-08
  Integral threshold = 0.00e+00

  ==> Primary Basis <==

  Basis Set: 6-311++G(D,P)
    Blend: 6-311++G(D,P)
    Number of shells: 75
    Number of basis function: 145
    Number of Cartesian functions: 150
    Spherical Harmonics?: true
    Max angular momentum: 2

  ==> DFT Potential <==

   => Composite Functional: M06-2X <= 

    Hybrid M06-2X Meta-GGA XC Functional

    Y. Zhao and D. G. Truhlar,  Theor. Chem. Acc., 120, 215, 2008


    Deriv               =              1
    GGA                 =           TRUE
    Meta                =           TRUE

    Exchange Hybrid     =           TRUE
    MP2 Hybrid          =          FALSE

   => Exchange Functionals <=

    1.0000   XC_HYB_MGGA_X_M06_2X

   => Exact (HF) Exchange <=

    0.5400               HF 

   => Correlation Functionals <=

    1.0000   XC_MGGA_C_M06_2X

   => Molecular Quadrature <=

    Radial Scheme       =       TREUTLER
    Pruning Scheme      =           FLAT
    Nuclear Scheme      =       TREUTLER

    BS radius alpha     =              1
    Pruning alpha       =              1
    Radial Points       =             75
    Spherical Points    =            302
    Total Points        =         226500
    Total Blocks        =           1756
    Max Points          =            256
    Max Functions       =            144

   => Loading Basis Set <=

    Name: (6-311++G(D,P) AUX)
    Role: JKFIT
    Keyword: DF_BASIS_SCF
    atoms 1, 6         entry C          line   162 file /root/psi4conda/share/psi4/basis/aug-cc-pvtz-jkfit.gbs 
    atoms 2-3          entry O          line   286 file /root/psi4conda/share/psi4/basis/aug-cc-pvtz-jkfit.gbs 
    atoms 4-5, 7-8, 10 entry H          line    70 file /root/psi4conda/share/psi4/basis/aug-cc-pvtz-jkfit.gbs 
    atoms 9            entry F          line   348 file /root/psi4conda/share/psi4/basis/aug-cc-pvtz-jkfit.gbs 

  ==> Pre-Iterations <==

   -------------------------------------------------------
    Irrep   Nso     Nmo     Nalpha   Nbeta   Ndocc  Nsocc
   -------------------------------------------------------
     A        145     145       0       0       0       0
   -------------------------------------------------------
    Total     145     145      21      21      21       0
   -------------------------------------------------------

  ==> Integral Setup <==

  DFHelper Memory: AOs need 0.152 [GiB]; user supplied 0.366 [GiB]. Using in-core AOs.

  ==> MemDFJK: Density-Fitted J/K Matrices <==

    J tasked:                   Yes
    K tasked:                   Yes
    wK tasked:                   No
    OpenMP threads:              16
    Memory (MB):                375
    Algorithm:                 Core
    Schwarz Cutoff:           1E-12
    Mask sparsity (%):       2.5398
    Fitting Condition:        1E-12

   => Auxiliary Basis Set <=

  Basis Set: (6-311++G(D,P) AUX)
    Blend: AUG-CC-PVTZ-JKFIT
    Number of shells: 220
    Number of basis function: 750
    Number of Cartesian functions: 930
    Spherical Harmonics?: true
    Max angular momentum: 4

  Minimum eigenvalue in the overlap matrix is 5.4901335696E-04.
  Using Symmetric Orthogonalization.

  SCF Guess: Superposition of Atomic Densities via on-the-fly atomic UHF.

  ==> Iterations <==

                           Total Energy        Delta E     RMS |[F,P]|

   @DF-RKS iter   0:  -330.61259126036720   -3.30613e+02   7.58247e-02 
   @DF-RKS iter   1:  -329.25841384406488    1.35418e+00   1.56402e-02 
   @DF-RKS iter   2:  -329.21275941260143    4.56544e-02   1.99858e-02 DIIS
   @DF-RKS iter   3:  -329.40751140332799   -1.94752e-01   2.12025e-03 DIIS
   @DF-RKS iter   4:  -329.40930289195899   -1.79149e-03   1.35599e-03 DIIS
   @DF-RKS iter   5:  -329.41024016154762   -9.37270e-04   2.86175e-04 DIIS
   @DF-RKS iter   6:  -329.41029210860171   -5.19471e-05   1.12679e-04 DIIS
   @DF-RKS iter   7:  -329.41029944240319   -7.33380e-06   2.35728e-05 DIIS
   @DF-RKS iter   8:  -329.41029997121359   -5.28810e-07   9.67870e-06 DIIS
   @DF-RKS iter   9:  -329.41030006137407   -9.01605e-08   2.51252e-06 DIIS
   @DF-RKS iter  10:  -329.41030006900485   -7.63077e-09   6.62235e-07 DIIS
   @DF-RKS iter  11:  -329.41030006967435   -6.69502e-10   2.04943e-07 DIIS
   @DF-RKS iter  12:  -329.41030006974296   -6.86100e-11   5.88848e-08 DIIS
   @DF-RKS iter  13:  -329.41030006974995   -6.99174e-12   8.65639e-09 DIIS

  ==> Post-Iterations <==

    Orbital Energies [Eh]
    ---------------------

    Doubly Occupied:                                                      

       1A    -25.250254     2A    -19.702131     3A    -19.603056  
       4A    -10.736553     5A    -10.625153     6A     -1.383661  
       7A     -1.243518     8A     -1.133137     9A     -0.837825  
      10A     -0.763677    11A     -0.659469    12A     -0.646611  
      13A     -0.604687    14A     -0.573869    15A     -0.552310  
      16A     -0.527051    17A     -0.480373    18A     -0.471957  
      19A     -0.448350    20A     -0.372391    21A     -0.367117  

    Virtual:                                                              

      22A     -0.011656    23A      0.010575    24A      0.020127  
      25A      0.023055    26A      0.044802    27A      0.057740  
      28A      0.070204    29A      0.074020    30A      0.080843  
      31A      0.101976    32A      0.114433    33A      0.120661  
      34A      0.130869    35A      0.133707    36A      0.180459  
      37A      0.182247    38A      0.188327    39A      0.206801  
      40A      0.215251    41A      0.226769    42A      0.246626  
      43A      0.250052    44A      0.272431    45A      0.278111  
      46A      0.305553    47A      0.320475    48A      0.322671  
      49A      0.335762    50A      0.351797    51A      0.376421  
      52A      0.392502    53A      0.394302    54A      0.432323  
      55A      0.445927    56A      0.469919    57A      0.497085  
      58A      0.519426    59A      0.567374    60A      0.600678  
      61A      0.643323    62A      0.648143    63A      0.671741  
      64A      0.696158    65A      0.703540    66A      0.750298  
      67A      0.901698    68A      0.990726    69A      1.009069  
      70A      1.039270    71A      1.071007    72A      1.135593  
      73A      1.180147    74A      1.197557    75A      1.216795  
      76A      1.236145    77A      1.330876    78A      1.349859  
      79A      1.398427    80A      1.454553    81A      1.462921  
      82A      1.504127    83A      1.535735    84A      1.540691  
      85A      1.550389    86A      1.583225    87A      1.612656  
      88A      1.664978    89A      1.672637    90A      1.712421  
      91A      1.752854    92A      1.795001    93A      1.804496  
      94A      1.831537    95A      1.958441    96A      2.002954  
      97A      2.040908    98A      2.070639    99A      2.135745  
     100A      2.145653   101A      2.228338   102A      2.428849  
     103A      2.446477   104A      2.507144   105A      2.519863  
     106A      2.559712   107A      2.592742   108A      2.682434  
     109A      2.719576   110A      2.762577   111A      2.893821  
     112A      2.910025   113A      2.974759   114A      3.078706  
     115A      3.106231   116A      3.168711   117A      3.226007  
     118A      3.382996   119A      3.423808   120A      3.550998  
     121A      3.719619   122A      3.797257   123A      3.818210  
     124A      3.875588   125A      3.888081   126A      3.936142  
     127A      4.008978   128A      4.090649   129A      4.143885  
     130A      4.220187   131A      4.856931   132A      5.204047  
     133A      5.217722   134A      5.258136   135A      5.303360  
     136A      5.616521   137A      5.744146   138A      6.493000  
     139A      6.508664   140A      6.830037   141A     23.794845  
     142A     23.953348   143A     49.963730   144A     50.105890  
     145A     66.923688  

    Final Occupation by Irrep:
              A 
    DOCC [    21 ]

  Energy converged.

  @DF-RKS Final Energy:  -329.41030006974995

   => Energetics <=

    Nuclear Repulsion Energy =            197.5407043765255537
    One-Electron Energy =                -843.9231532461334382
    Two-Electron Energy =                 336.3607003760498628
    DFT Exchange-Correlation Energy =     -19.3885515761919436
    Empirical Dispersion Energy =           0.0000000000000000
    VV10 Nonlocal Energy =                  0.0000000000000000
    Total Energy =                       -329.4103000697499510



Properties will be evaluated at   0.000000,   0.000000,   0.000000 [a0]

Properties computed using the SCF density matrix

  Nuclear Dipole Moment: [e a0]
     X:     5.1918      Y:     4.0743      Z:    -4.9169

  Electronic Dipole Moment: [e a0]
     X:    -3.6436      Y:    -3.2738      Z:     4.3026

  Dipole Moment: [e a0]
     X:     1.5482      Y:     0.8005      Z:    -0.6144     Total:     1.8480

  Dipole Moment: [D]
     X:     3.9352      Y:     2.0348      Z:    -1.5615     Total:     4.6972


*** tstop() called on localhost.localdomain at Thu Jan 17 13:21:21 2019
Module time:
	user time   =     125.66 seconds =       2.09 minutes
	system time =       2.28 seconds =       0.04 minutes
	total time  =         10 seconds =       0.17 minutes
Total time:
	user time   =     296.63 seconds =       4.94 minutes
	system time =       6.91 seconds =       0.12 minutes
	total time  =         22 seconds =       0.37 minutes

*** tstart() called on localhost.localdomain
*** at Thu Jan 17 13:21:21 2019


         ------------------------------------------------------------
                                   SCF GRAD                          
                          Rob Parrish, Justin Turney,                
                       Andy Simmonett, and Alex Sokolov              
         ------------------------------------------------------------

  ==> Geometry <==

    Molecular point group: c1
    Full point group: C1

    Geometry (in Angstrom), charge = 0, multiplicity = 1:

       Center              X                  Y                   Z               Mass       
    ------------   -----------------  -----------------  -----------------  -----------------
         C           -0.108733152141    -0.645242080341     0.050660581205    12.000000000000
         O           -1.120104476862    -0.620038295092    -0.731168424673    15.994914619560
         O            0.225578572306     0.911695924164    -0.083948467414    15.994914619560
         H           -0.718334798495     0.657869594061    -0.701071845468     1.007825032070
         H            1.355446745339     2.315630658383    -1.044559348651     1.007825032070
         C            1.408609196039     1.254525804420    -0.810952137107    12.000000000000
         H            1.473693087952     0.670737199766    -1.733331869976     1.007825032070
         H            2.273439500796     1.062503518831    -0.177799310742     1.007825032070
         F           -0.343621764546    -0.817237100704     1.371285999419    18.998403224000
         H            0.812706933471    -1.184545856072    -0.204047253669     1.007825032070

  Nuclear repulsion =  197.540704376525554

  ==> Basis Set <==

  Basis Set: 6-311++G(D,P)
    Blend: 6-311++G(D,P)
    Number of shells: 75
    Number of basis function: 145
    Number of Cartesian functions: 150
    Spherical Harmonics?: true
    Max angular momentum: 2

  ==> DFJKGrad: Density-Fitted SCF Gradients <==

    Gradient:                    1
    J tasked:                  Yes
    K tasked:                  Yes
    wK tasked:                  No
    OpenMP threads:             16
    Integrals threads:          16
    Memory (MB):               375
    Schwarz Cutoff:          0E+00
    Fitting Condition:       1E-12

   => Auxiliary Basis Set <=

  Basis Set: (6-311++G(D,P) AUX)
    Blend: AUG-CC-PVTZ-JKFIT
    Number of shells: 220
    Number of basis function: 750
    Number of Cartesian functions: 930
    Spherical Harmonics?: true
    Max angular momentum: 4

  ==> DFT Potential <==

   => Composite Functional: M06-2X <= 

    Hybrid M06-2X Meta-GGA XC Functional

    Y. Zhao and D. G. Truhlar,  Theor. Chem. Acc., 120, 215, 2008


    Deriv               =              1
    GGA                 =           TRUE
    Meta                =           TRUE

    Exchange Hybrid     =           TRUE
    MP2 Hybrid          =          FALSE

   => Exchange Functionals <=

    1.0000   XC_HYB_MGGA_X_M06_2X

   => Exact (HF) Exchange <=

    0.5400               HF 

   => Correlation Functionals <=

    1.0000   XC_MGGA_C_M06_2X

   => Molecular Quadrature <=

    Radial Scheme       =       TREUTLER
    Pruning Scheme      =           FLAT
    Nuclear Scheme      =       TREUTLER

    BS radius alpha     =              1
    Pruning alpha       =              1
    Radial Points       =             75
    Spherical Points    =            302
    Total Points        =         226500
    Total Blocks        =           1756
    Max Points          =            256
    Max Functions       =            144


  -Total Gradient:
     Atom            X                  Y                   Z
    ------   -----------------  -----------------  -----------------
       1       -0.001052936111     0.000497838689     0.000001581991
       2        0.000531769884     0.000029866746     0.000198920882
       3        0.000067069872    -0.000172921441     0.000087752366
       4       -0.000109671763    -0.000098057610    -0.000009093022
       5        0.000006761562    -0.000014753124    -0.000010059211
       6        0.000088698638     0.000008802429    -0.000062141783
       7       -0.000008084232    -0.000003925742    -0.000006533793
       8        0.000018147961     0.000003442805    -0.000020995538
       9        0.000160257515    -0.000021709698    -0.000096419459
      10        0.000350238719    -0.000189875218    -0.000105347771


*** tstop() called on localhost.localdomain at Thu Jan 17 13:21:23 2019
Module time:
	user time   =      37.69 seconds =       0.63 minutes
	system time =       1.55 seconds =       0.03 minutes
	total time  =          2 seconds =       0.03 minutes
Total time:
	user time   =     334.36 seconds =       5.57 minutes
	system time =       8.47 seconds =       0.14 minutes
	total time  =         24 seconds =       0.40 minutes

  //>>>>>>>>>>>>>>>>>>>>>>>>>>>>>>>>>>>//
  //    Loading displacement 2 of 49   //
  //<<<<<<<<<<<<<<<<<<<<<<<<<<<<<<<<<<<//
gradient() will perform analytic gradient computation.

*** tstart() called on localhost.localdomain
*** at Thu Jan 17 13:21:23 2019

   => Loading Basis Set <=

    Name: 6-311++G(D,P)
    Role: ORBITAL
    Keyword: BASIS
    atoms 1, 6         entry C          line   119 file /root/psi4conda/share/psi4/basis/6-311ppg_d_p_.gbs 
    atoms 2-3          entry O          line   161 file /root/psi4conda/share/psi4/basis/6-311ppg_d_p_.gbs 
    atoms 4-5, 7-8, 10 entry H          line    42 file /root/psi4conda/share/psi4/basis/6-311ppg_d_p_.gbs 
    atoms 9            entry F          line   182 file /root/psi4conda/share/psi4/basis/6-311ppg_d_p_.gbs 


         ---------------------------------------------------------
                                   SCF
            by Justin Turney, Rob Parrish, Andy Simmonett
                             and Daniel Smith
                              RKS Reference
                       16 Threads,    500 MiB Core
         ---------------------------------------------------------

  ==> Geometry <==

    Molecular point group: c1
    Full point group: C1

    Geometry (in Angstrom), charge = 0, multiplicity = 1:

       Center              X                  Y                   Z               Mass       
    ------------   -----------------  -----------------  -----------------  -----------------
         C           -0.107362077809    -0.645230494214     0.050646663566    12.000000000000
         O           -1.120460281853    -0.619883554355    -0.731145504519    15.994914619560
         O            0.225429898081     0.911671143001    -0.083931403239    15.994914619560
         H           -0.718535994993     0.657975224778    -0.701028069055     1.007825032070
         H            1.355432444441     2.315496582791    -1.044543953306     1.007825032070
         C            1.408475746377     1.254378913536    -0.810967870052    12.000000000000
         H            1.473456565468     0.670607906102    -1.733366007272     1.007825032070
         H            2.273305578845     1.062235279364    -0.177851213785     1.007825032070
         F           -0.343926204608    -0.817233574426     1.371275759952    18.998403224000
         H            0.812302109075    -1.184637853759    -0.204108897863     1.007825032070

  Running in c1 symmetry.

  Rotational constants: A =      0.30754  B =      0.12484  C =      0.09981 [cm^-1]
  Rotational constants: A =   9219.80114  B =   3742.47107  C =   2992.20641 [MHz]
  Nuclear repulsion =  197.525683980291461

  Charge       = 0
  Multiplicity = 1
  Electrons    = 42
  Nalpha       = 21
  Nbeta        = 21

  ==> Algorithm <==

  SCF Algorithm Type is DF.
  DIIS enabled.
  MOM disabled.
  Fractional occupation disabled.
  Guess Type is SAD.
  Energy threshold   = 1.00e-08
  Density threshold  = 1.00e-08
  Integral threshold = 0.00e+00

  ==> Primary Basis <==

  Basis Set: 6-311++G(D,P)
    Blend: 6-311++G(D,P)
    Number of shells: 75
    Number of basis function: 145
    Number of Cartesian functions: 150
    Spherical Harmonics?: true
    Max angular momentum: 2

  ==> DFT Potential <==

   => Composite Functional: M06-2X <= 

    Hybrid M06-2X Meta-GGA XC Functional

    Y. Zhao and D. G. Truhlar,  Theor. Chem. Acc., 120, 215, 2008


    Deriv               =              1
    GGA                 =           TRUE
    Meta                =           TRUE

    Exchange Hybrid     =           TRUE
    MP2 Hybrid          =          FALSE

   => Exchange Functionals <=

    1.0000   XC_HYB_MGGA_X_M06_2X

   => Exact (HF) Exchange <=

    0.5400               HF 

   => Correlation Functionals <=

    1.0000   XC_MGGA_C_M06_2X

   => Molecular Quadrature <=

    Radial Scheme       =       TREUTLER
    Pruning Scheme      =           FLAT
    Nuclear Scheme      =       TREUTLER

    BS radius alpha     =              1
    Pruning alpha       =              1
    Radial Points       =             75
    Spherical Points    =            302
    Total Points        =         226500
    Total Blocks        =           1753
    Max Points          =            256
    Max Functions       =            144

   => Loading Basis Set <=

    Name: (6-311++G(D,P) AUX)
    Role: JKFIT
    Keyword: DF_BASIS_SCF
    atoms 1, 6         entry C          line   162 file /root/psi4conda/share/psi4/basis/aug-cc-pvtz-jkfit.gbs 
    atoms 2-3          entry O          line   286 file /root/psi4conda/share/psi4/basis/aug-cc-pvtz-jkfit.gbs 
    atoms 4-5, 7-8, 10 entry H          line    70 file /root/psi4conda/share/psi4/basis/aug-cc-pvtz-jkfit.gbs 
    atoms 9            entry F          line   348 file /root/psi4conda/share/psi4/basis/aug-cc-pvtz-jkfit.gbs 

  ==> Pre-Iterations <==

   -------------------------------------------------------
    Irrep   Nso     Nmo     Nalpha   Nbeta   Ndocc  Nsocc
   -------------------------------------------------------
     A        145     145       0       0       0       0
   -------------------------------------------------------
    Total     145     145      21      21      21       0
   -------------------------------------------------------

  ==> Integral Setup <==

  DFHelper Memory: AOs need 0.152 [GiB]; user supplied 0.366 [GiB]. Using in-core AOs.

  ==> MemDFJK: Density-Fitted J/K Matrices <==

    J tasked:                   Yes
    K tasked:                   Yes
    wK tasked:                   No
    OpenMP threads:              16
    Memory (MB):                375
    Algorithm:                 Core
    Schwarz Cutoff:           1E-12
    Mask sparsity (%):       2.5398
    Fitting Condition:        1E-12

   => Auxiliary Basis Set <=

  Basis Set: (6-311++G(D,P) AUX)
    Blend: AUG-CC-PVTZ-JKFIT
    Number of shells: 220
    Number of basis function: 750
    Number of Cartesian functions: 930
    Spherical Harmonics?: true
    Max angular momentum: 4

  Minimum eigenvalue in the overlap matrix is 5.4875685135E-04.
  Using Symmetric Orthogonalization.

  SCF Guess: Superposition of Atomic Densities via on-the-fly atomic UHF.

  ==> Iterations <==

                           Total Energy        Delta E     RMS |[F,P]|

   @DF-RKS iter   0:  -330.49646469320720   -3.30496e+02   8.17447e-02 
   @DF-RKS iter   1:  -329.28436090399515    1.21210e+00   1.31288e-02 
   @DF-RKS iter   2:  -329.22343147324091    6.09294e-02   2.02365e-02 DIIS
   @DF-RKS iter   3:  -329.40733490539753   -1.83903e-01   2.46978e-03 DIIS
   @DF-RKS iter   4:  -329.40931817120571   -1.98327e-03   1.33287e-03 DIIS
   @DF-RKS iter   5:  -329.41025774702774   -9.39576e-04   2.52855e-04 DIIS
   @DF-RKS iter   6:  -329.41029451938022   -3.67724e-05   9.43703e-05 DIIS
   @DF-RKS iter   7:  -329.41029929242757   -4.77305e-06   2.51710e-05 DIIS
   @DF-RKS iter   8:  -329.41029971790090   -4.25473e-07   6.87309e-06 DIIS
   @DF-RKS iter   9:  -329.41029975744232   -3.95414e-08   1.80639e-06 DIIS
   @DF-RKS iter  10:  -329.41029976047389   -3.03157e-09   3.53776e-07 DIIS
   @DF-RKS iter  11:  -329.41029976070030   -2.26407e-10   1.41271e-07 DIIS
   @DF-RKS iter  12:  -329.41029976072485   -2.45564e-11   4.21775e-08 DIIS
   @DF-RKS iter  13:  -329.41029976072826   -3.41061e-12   7.03332e-09 DIIS

  ==> Post-Iterations <==

    Orbital Energies [Eh]
    ---------------------

    Doubly Occupied:                                                      

       1A    -25.250225     2A    -19.702326     3A    -19.602858  
       4A    -10.736563     5A    -10.625235     6A     -1.383514  
       7A     -1.243444     8A     -1.132568     9A     -0.837875  
      10A     -0.763983    11A     -0.659417    12A     -0.646614  
      13A     -0.604811    14A     -0.573724    15A     -0.552314  
      16A     -0.527029    17A     -0.480357    18A     -0.471871  
      19A     -0.448502    20A     -0.372151    21A     -0.367008  

    Virtual:                                                              

      22A     -0.011693    23A      0.010545    24A      0.020114  
      25A      0.023021    26A      0.044778    27A      0.057699  
      28A      0.070178    29A      0.074000    30A      0.080852  
      31A      0.102009    32A      0.114412    33A      0.120664  
      34A      0.130836    35A      0.133728    36A      0.180429  
      37A      0.182166    38A      0.188320    39A      0.206793  
      40A      0.215241    41A      0.226835    42A      0.246467  
      43A      0.250026    44A      0.272347    45A      0.277859  
      46A      0.305582    47A      0.320452    48A      0.322696  
      49A      0.335709    50A      0.351901    51A      0.376434  
      52A      0.392546    53A      0.394336    54A      0.432143  
      55A      0.445913    56A      0.469656    57A      0.496942  
      58A      0.519544    59A      0.567464    60A      0.600702  
      61A      0.643237    62A      0.648060    63A      0.671527  
      64A      0.695889    65A      0.703479    66A      0.750152  
      67A      0.901571    68A      0.990695    69A      1.008994  
      70A      1.039195    71A      1.071326    72A      1.135499  
      73A      1.180210    74A      1.197550    75A      1.216632  
      76A      1.236217    77A      1.330888    78A      1.349774  
      79A      1.398518    80A      1.454530    81A      1.463097  
      82A      1.504197    83A      1.535797    84A      1.540631  
      85A      1.550463    86A      1.583320    87A      1.612847  
      88A      1.664968    89A      1.672479    90A      1.712425  
      91A      1.752747    92A      1.794815    93A      1.804606  
      94A      1.831433    95A      1.958280    96A      2.003117  
      97A      2.040906    98A      2.070670    99A      2.136114  
     100A      2.145655   101A      2.228287   102A      2.429562  
     103A      2.447200   104A      2.507072   105A      2.519893  
     106A      2.559685   107A      2.592747   108A      2.682481  
     109A      2.719241   110A      2.762505   111A      2.893848  
     112A      2.909989   113A      2.974514   114A      3.078410  
     115A      3.106013   116A      3.168104   117A      3.224744  
     118A      3.381723   119A      3.422857   120A      3.551204  
     121A      3.719709   122A      3.797375   123A      3.818157  
     124A      3.875648   125A      3.888148   126A      3.936280  
     127A      4.009251   128A      4.090676   129A      4.143660  
     130A      4.220345   131A      4.856856   132A      5.204012  
     133A      5.217747   134A      5.258040   135A      5.303545  
     136A      5.616384   137A      5.743421   138A      6.493019  
     139A      6.508703   140A      6.829388   141A     23.794588  
     142A     23.953267   143A     49.963565   144A     50.105509  
     145A     66.923766  

    Final Occupation by Irrep:
              A 
    DOCC [    21 ]

  Energy converged.

  @DF-RKS Final Energy:  -329.41029976072826

   => Energetics <=

    Nuclear Repulsion Energy =            197.5256839802914612
    One-Electron Energy =                -843.8948224344317168
    Two-Electron Energy =                 336.3471895378550585
    DFT Exchange-Correlation Energy =     -19.3883508444430177
    Empirical Dispersion Energy =           0.0000000000000000
    VV10 Nonlocal Energy =                  0.0000000000000000
    Total Energy =                       -329.4102997607282646



Properties will be evaluated at   0.000000,   0.000000,   0.000000 [a0]

Properties computed using the SCF density matrix

  Nuclear Dipole Moment: [e a0]
     X:     5.1912      Y:     4.0738      Z:    -4.9170

  Electronic Dipole Moment: [e a0]
     X:    -3.6384      Y:    -3.2726      Z:     4.3032

  Dipole Moment: [e a0]
     X:     1.5528      Y:     0.8012      Z:    -0.6138     Total:     1.8520

  Dipole Moment: [D]
     X:     3.9468      Y:     2.0366      Z:    -1.5601     Total:     4.7073


*** tstop() called on localhost.localdomain at Thu Jan 17 13:21:33 2019
Module time:
	user time   =     129.23 seconds =       2.15 minutes
	system time =       2.45 seconds =       0.04 minutes
	total time  =         10 seconds =       0.17 minutes
Total time:
	user time   =     463.80 seconds =       7.73 minutes
	system time =      10.93 seconds =       0.18 minutes
	total time  =         34 seconds =       0.57 minutes

*** tstart() called on localhost.localdomain
*** at Thu Jan 17 13:21:33 2019


         ------------------------------------------------------------
                                   SCF GRAD                          
                          Rob Parrish, Justin Turney,                
                       Andy Simmonett, and Alex Sokolov              
         ------------------------------------------------------------

  ==> Geometry <==

    Molecular point group: c1
    Full point group: C1

    Geometry (in Angstrom), charge = 0, multiplicity = 1:

       Center              X                  Y                   Z               Mass       
    ------------   -----------------  -----------------  -----------------  -----------------
         C           -0.107362077809    -0.645230494214     0.050646663566    12.000000000000
         O           -1.120460281853    -0.619883554355    -0.731145504519    15.994914619560
         O            0.225429898081     0.911671143001    -0.083931403239    15.994914619560
         H           -0.718535994993     0.657975224778    -0.701028069055     1.007825032070
         H            1.355432444441     2.315496582791    -1.044543953306     1.007825032070
         C            1.408475746377     1.254378913536    -0.810967870052    12.000000000000
         H            1.473456565468     0.670607906102    -1.733366007272     1.007825032070
         H            2.273305578845     1.062235279364    -0.177851213785     1.007825032070
         F           -0.343926204608    -0.817233574426     1.371275759952    18.998403224000
         H            0.812302109075    -1.184637853759    -0.204108897863     1.007825032070

  Nuclear repulsion =  197.525683980291461

  ==> Basis Set <==

  Basis Set: 6-311++G(D,P)
    Blend: 6-311++G(D,P)
    Number of shells: 75
    Number of basis function: 145
    Number of Cartesian functions: 150
    Spherical Harmonics?: true
    Max angular momentum: 2

  ==> DFJKGrad: Density-Fitted SCF Gradients <==

    Gradient:                    1
    J tasked:                  Yes
    K tasked:                  Yes
    wK tasked:                  No
    OpenMP threads:             16
    Integrals threads:          16
    Memory (MB):               375
    Schwarz Cutoff:          0E+00
    Fitting Condition:       1E-12

   => Auxiliary Basis Set <=

  Basis Set: (6-311++G(D,P) AUX)
    Blend: AUG-CC-PVTZ-JKFIT
    Number of shells: 220
    Number of basis function: 750
    Number of Cartesian functions: 930
    Spherical Harmonics?: true
    Max angular momentum: 4

  ==> DFT Potential <==

   => Composite Functional: M06-2X <= 

    Hybrid M06-2X Meta-GGA XC Functional

    Y. Zhao and D. G. Truhlar,  Theor. Chem. Acc., 120, 215, 2008


    Deriv               =              1
    GGA                 =           TRUE
    Meta                =           TRUE

    Exchange Hybrid     =           TRUE
    MP2 Hybrid          =          FALSE

   => Exchange Functionals <=

    1.0000   XC_HYB_MGGA_X_M06_2X

   => Exact (HF) Exchange <=

    0.5400               HF 

   => Correlation Functionals <=

    1.0000   XC_MGGA_C_M06_2X

   => Molecular Quadrature <=

    Radial Scheme       =       TREUTLER
    Pruning Scheme      =           FLAT
    Nuclear Scheme      =       TREUTLER

    BS radius alpha     =              1
    Pruning alpha       =              1
    Radial Points       =             75
    Spherical Points    =            302
    Total Points        =         226500
    Total Blocks        =           1753
    Max Points          =            256
    Max Functions       =            144


  -Total Gradient:
     Atom            X                  Y                   Z
    ------   -----------------  -----------------  -----------------
       1        0.001180100222    -0.000267788041     0.000128309559
       2       -0.000559142636    -0.000037211336    -0.000254343524
       3       -0.000227166014     0.000073688276    -0.000016522921
       4        0.000116427268     0.000188413141     0.000034181609
       5        0.000006832536    -0.000012231817    -0.000010746243
       6        0.000050488372    -0.000047288303    -0.000044618747
       7        0.000000078950    -0.000008013133    -0.000006466348
       8        0.000014932314    -0.000001511045    -0.000020408630
       9       -0.000148821623    -0.000006002723     0.000117682715
      10       -0.000382302339     0.000154690214     0.000053261444


*** tstop() called on localhost.localdomain at Thu Jan 17 13:21:35 2019
Module time:
	user time   =      37.99 seconds =       0.63 minutes
	system time =       1.50 seconds =       0.03 minutes
	total time  =          2 seconds =       0.03 minutes
Total time:
	user time   =     501.84 seconds =       8.36 minutes
	system time =      12.43 seconds =       0.21 minutes
	total time  =         36 seconds =       0.60 minutes

  //>>>>>>>>>>>>>>>>>>>>>>>>>>>>>>>>>>>//
  //    Loading displacement 3 of 49   //
  //<<<<<<<<<<<<<<<<<<<<<<<<<<<<<<<<<<<//
gradient() will perform analytic gradient computation.

*** tstart() called on localhost.localdomain
*** at Thu Jan 17 13:21:35 2019

   => Loading Basis Set <=

    Name: 6-311++G(D,P)
    Role: ORBITAL
    Keyword: BASIS
    atoms 1, 6         entry C          line   119 file /root/psi4conda/share/psi4/basis/6-311ppg_d_p_.gbs 
    atoms 2-3          entry O          line   161 file /root/psi4conda/share/psi4/basis/6-311ppg_d_p_.gbs 
    atoms 4-5, 7-8, 10 entry H          line    42 file /root/psi4conda/share/psi4/basis/6-311ppg_d_p_.gbs 
    atoms 9            entry F          line   182 file /root/psi4conda/share/psi4/basis/6-311ppg_d_p_.gbs 


         ---------------------------------------------------------
                                   SCF
            by Justin Turney, Rob Parrish, Andy Simmonett
                             and Daniel Smith
                              RKS Reference
                       16 Threads,    500 MiB Core
         ---------------------------------------------------------

  ==> Geometry <==

    Molecular point group: c1
    Full point group: C1

    Geometry (in Angstrom), charge = 0, multiplicity = 1:

       Center              X                  Y                   Z               Mass       
    ------------   -----------------  -----------------  -----------------  -----------------
         C           -0.108047614975    -0.645939931351     0.050655378783    12.000000000000
         O           -1.120290367562    -0.619827923918    -0.731153692968    15.994914619560
         O            0.225511580372     0.911805540748    -0.083942530531    15.994914619560
         H           -0.718431386565     0.658051726029    -0.701050456916     1.007825032070
         H            1.355458572937     2.315672695773    -1.044559462192     1.007825032070
         C            1.408551889182     1.254561512419    -0.810965285998    12.000000000000
         H            1.473577347432     0.670778828024    -1.733352885620     1.007825032070
         H            2.273381147988     1.062472022409    -0.177831419663     1.007825032070
         F           -0.343780541426    -0.817104424688     1.371283426747    18.998403224000
         H            0.812492073713    -1.184475633376    -0.204076426496     1.007825032070

  Running in c1 symmetry.

  Rotational constants: A =      0.30753  B =      0.12482  C =      0.09980 [cm^-1]
  Rotational constants: A =   9219.52460  B =   3742.08318  C =   2991.95108 [MHz]
  Nuclear repulsion =  197.524477407830432

  Charge       = 0
  Multiplicity = 1
  Electrons    = 42
  Nalpha       = 21
  Nbeta        = 21

  ==> Algorithm <==

  SCF Algorithm Type is DF.
  DIIS enabled.
  MOM disabled.
  Fractional occupation disabled.
  Guess Type is SAD.
  Energy threshold   = 1.00e-08
  Density threshold  = 1.00e-08
  Integral threshold = 0.00e+00

  ==> Primary Basis <==

  Basis Set: 6-311++G(D,P)
    Blend: 6-311++G(D,P)
    Number of shells: 75
    Number of basis function: 145
    Number of Cartesian functions: 150
    Spherical Harmonics?: true
    Max angular momentum: 2

  ==> DFT Potential <==

   => Composite Functional: M06-2X <= 

    Hybrid M06-2X Meta-GGA XC Functional

    Y. Zhao and D. G. Truhlar,  Theor. Chem. Acc., 120, 215, 2008


    Deriv               =              1
    GGA                 =           TRUE
    Meta                =           TRUE

    Exchange Hybrid     =           TRUE
    MP2 Hybrid          =          FALSE

   => Exchange Functionals <=

    1.0000   XC_HYB_MGGA_X_M06_2X

   => Exact (HF) Exchange <=

    0.5400               HF 

   => Correlation Functionals <=

    1.0000   XC_MGGA_C_M06_2X

   => Molecular Quadrature <=

    Radial Scheme       =       TREUTLER
    Pruning Scheme      =           FLAT
    Nuclear Scheme      =       TREUTLER

    BS radius alpha     =              1
    Pruning alpha       =              1
    Radial Points       =             75
    Spherical Points    =            302
    Total Points        =         226500
    Total Blocks        =           1758
    Max Points          =            256
    Max Functions       =            144

   => Loading Basis Set <=

    Name: (6-311++G(D,P) AUX)
    Role: JKFIT
    Keyword: DF_BASIS_SCF
    atoms 1, 6         entry C          line   162 file /root/psi4conda/share/psi4/basis/aug-cc-pvtz-jkfit.gbs 
    atoms 2-3          entry O          line   286 file /root/psi4conda/share/psi4/basis/aug-cc-pvtz-jkfit.gbs 
    atoms 4-5, 7-8, 10 entry H          line    70 file /root/psi4conda/share/psi4/basis/aug-cc-pvtz-jkfit.gbs 
    atoms 9            entry F          line   348 file /root/psi4conda/share/psi4/basis/aug-cc-pvtz-jkfit.gbs 

  ==> Pre-Iterations <==

   -------------------------------------------------------
    Irrep   Nso     Nmo     Nalpha   Nbeta   Ndocc  Nsocc
   -------------------------------------------------------
     A        145     145       0       0       0       0
   -------------------------------------------------------
    Total     145     145      21      21      21       0
   -------------------------------------------------------

  ==> Integral Setup <==

  DFHelper Memory: AOs need 0.152 [GiB]; user supplied 0.366 [GiB]. Using in-core AOs.

  ==> MemDFJK: Density-Fitted J/K Matrices <==

    J tasked:                   Yes
    K tasked:                   Yes
    wK tasked:                   No
    OpenMP threads:              16
    Memory (MB):                375
    Algorithm:                 Core
    Schwarz Cutoff:           1E-12
    Mask sparsity (%):       2.5398
    Fitting Condition:        1E-12

   => Auxiliary Basis Set <=

  Basis Set: (6-311++G(D,P) AUX)
    Blend: AUG-CC-PVTZ-JKFIT
    Number of shells: 220
    Number of basis function: 750
    Number of Cartesian functions: 930
    Spherical Harmonics?: true
    Max angular momentum: 4

  Minimum eigenvalue in the overlap matrix is 5.4923111178E-04.
  Using Symmetric Orthogonalization.

  SCF Guess: Superposition of Atomic Densities via on-the-fly atomic UHF.

  ==> Iterations <==

                           Total Energy        Delta E     RMS |[F,P]|

   @DF-RKS iter   0:  -330.46730968082750   -3.30467e+02   9.85483e-02 
   @DF-RKS iter   1:  -329.34050622110647    1.12680e+00   1.02625e-02 
   @DF-RKS iter   2:  -329.34029845734301    2.07764e-04   1.25505e-02 DIIS
   @DF-RKS iter   3:  -329.40844431687867   -6.81459e-02   1.27806e-03 DIIS
   @DF-RKS iter   4:  -329.40993131914649   -1.48700e-03   8.37737e-04 DIIS
   @DF-RKS iter   5:  -329.41025177363235   -3.20454e-04   2.31505e-04 DIIS
   @DF-RKS iter   6:  -329.41029765122107   -4.58776e-05   7.07992e-05 DIIS
   @DF-RKS iter   7:  -329.41029996285550   -2.31163e-06   2.75402e-05 DIIS
   @DF-RKS iter   8:  -329.41030036125545   -3.98400e-07   4.63158e-06 DIIS
   @DF-RKS iter   9:  -329.41030038871531   -2.74599e-08   1.48270e-06 DIIS
   @DF-RKS iter  10:  -329.41030039099223   -2.27692e-09   3.32243e-07 DIIS
   @DF-RKS iter  11:  -329.41030039114639   -1.54159e-10   5.87536e-08 DIIS
   @DF-RKS iter  12:  -329.41030039115429   -7.90124e-12   2.13537e-08 DIIS
   @DF-RKS iter  13:  -329.41030039115464   -3.41061e-13   9.54583e-09 DIIS

  ==> Post-Iterations <==

    Orbital Energies [Eh]
    ---------------------

    Doubly Occupied:                                                      

       1A    -25.250332     2A    -19.702057     3A    -19.602991  
       4A    -10.736583     5A    -10.625109     6A     -1.383683  
       7A     -1.243282     8A     -1.132816     9A     -0.837701  
      10A     -0.763926    11A     -0.659318    12A     -0.646674  
      13A     -0.604677    14A     -0.573852    15A     -0.552277  
      16A     -0.527071    17A     -0.480347    18A     -0.471957  
      19A     -0.448288    20A     -0.372305    21A     -0.367039  

    Virtual:                                                              

      22A     -0.011661    23A      0.010567    24A      0.020125  
      25A      0.023053    26A      0.044800    27A      0.057672  
      28A      0.070188    29A      0.074001    30A      0.080773  
      31A      0.101928    32A      0.114428    33A      0.120649  
      34A      0.130849    35A      0.133656    36A      0.180477  
      37A      0.182251    38A      0.188367    39A      0.206833  
      40A      0.215266    41A      0.226801    42A      0.246601  
      43A      0.250043    44A      0.272384    45A      0.277983  
      46A      0.305598    47A      0.320484    48A      0.322670  
      49A      0.335693    50A      0.351811    51A      0.376412  
      52A      0.392536    53A      0.394335    54A      0.432222  
      55A      0.445951    56A      0.469743    57A      0.497068  
      58A      0.519568    59A      0.567450    60A      0.600736  
      61A      0.643333    62A      0.648180    63A      0.671680  
      64A      0.695989    65A      0.703520    66A      0.750250  
      67A      0.901688    68A      0.990705    69A      1.009084  
      70A      1.039345    71A      1.071137    72A      1.135485  
      73A      1.180180    74A      1.197546    75A      1.216787  
      76A      1.236181    77A      1.330847    78A      1.349917  
      79A      1.398447    80A      1.454603    81A      1.462994  
      82A      1.504052    83A      1.535894    84A      1.540761  
      85A      1.550399    86A      1.583347    87A      1.612648  
      88A      1.664977    89A      1.672510    90A      1.712479  
      91A      1.752843    92A      1.794772    93A      1.804512  
      94A      1.831304    95A      1.958308    96A      2.003053  
      97A      2.040961    98A      2.070661    99A      2.136119  
     100A      2.145692   101A      2.228376   102A      2.429452  
     103A      2.447030   104A      2.507145   105A      2.519878  
     106A      2.559728   107A      2.592773   108A      2.682310  
     109A      2.719379   110A      2.762347   111A      2.893970  
     112A      2.910088   113A      2.974665   114A      3.078683  
     115A      3.106055   116A      3.168464   117A      3.224994  
     118A      3.382353   119A      3.423631   120A      3.550919  
     121A      3.719638   122A      3.797319   123A      3.818242  
     124A      3.875456   125A      3.888050   126A      3.936026  
     127A      4.009157   128A      4.090799   129A      4.143644  
     130A      4.220148   131A      4.856960   132A      5.203847  
     133A      5.217703   134A      5.258179   135A      5.303276  
     136A      5.616290   137A      5.743697   138A      6.492893  
     139A      6.508624   140A      6.829764   141A     23.795095  
     142A     23.953383   143A     49.963807   144A     50.105692  
     145A     66.923675  

    Final Occupation by Irrep:
              A 
    DOCC [    21 ]

  Energy converged.

  @DF-RKS Final Energy:  -329.41030039115464

   => Energetics <=

    Nuclear Repulsion Energy =            197.5244774078304317
    One-Electron Energy =                -843.8925397645190287
    Two-Electron Energy =                 336.3461886213777916
    DFT Exchange-Correlation Energy =     -19.3884266558438263
    Empirical Dispersion Energy =           0.0000000000000000
    VV10 Nonlocal Energy =                  0.0000000000000000
    Total Energy =                       -329.4103003911546352



Properties will be evaluated at   0.000000,   0.000000,   0.000000 [a0]

Properties computed using the SCF density matrix

  Nuclear Dipole Moment: [e a0]
     X:     5.1915      Y:     4.0745      Z:    -4.9170

  Electronic Dipole Moment: [e a0]
     X:    -3.6416      Y:    -3.2759      Z:     4.3034

  Dipole Moment: [e a0]
     X:     1.5499      Y:     0.7986      Z:    -0.6135     Total:     1.8484

  Dipole Moment: [D]
     X:     3.9395      Y:     2.0298      Z:    -1.5595     Total:     4.6980


*** tstop() called on localhost.localdomain at Thu Jan 17 13:21:45 2019
Module time:
	user time   =     128.51 seconds =       2.14 minutes
	system time =       2.11 seconds =       0.04 minutes
	total time  =         10 seconds =       0.17 minutes
Total time:
	user time   =     630.62 seconds =      10.51 minutes
	system time =      14.56 seconds =       0.24 minutes
	total time  =         46 seconds =       0.77 minutes

*** tstart() called on localhost.localdomain
*** at Thu Jan 17 13:21:45 2019


         ------------------------------------------------------------
                                   SCF GRAD                          
                          Rob Parrish, Justin Turney,                
                       Andy Simmonett, and Alex Sokolov              
         ------------------------------------------------------------

  ==> Geometry <==

    Molecular point group: c1
    Full point group: C1

    Geometry (in Angstrom), charge = 0, multiplicity = 1:

       Center              X                  Y                   Z               Mass       
    ------------   -----------------  -----------------  -----------------  -----------------
         C           -0.108047614975    -0.645939931351     0.050655378783    12.000000000000
         O           -1.120290367562    -0.619827923918    -0.731153692968    15.994914619560
         O            0.225511580372     0.911805540748    -0.083942530531    15.994914619560
         H           -0.718431386565     0.658051726029    -0.701050456916     1.007825032070
         H            1.355458572937     2.315672695773    -1.044559462192     1.007825032070
         C            1.408551889182     1.254561512419    -0.810965285998    12.000000000000
         H            1.473577347432     0.670778828024    -1.733352885620     1.007825032070
         H            2.273381147988     1.062472022409    -0.177831419663     1.007825032070
         F           -0.343780541426    -0.817104424688     1.371283426747    18.998403224000
         H            0.812492073713    -1.184475633376    -0.204076426496     1.007825032070

  Nuclear repulsion =  197.524477407830403

  ==> Basis Set <==

  Basis Set: 6-311++G(D,P)
    Blend: 6-311++G(D,P)
    Number of shells: 75
    Number of basis function: 145
    Number of Cartesian functions: 150
    Spherical Harmonics?: true
    Max angular momentum: 2

  ==> DFJKGrad: Density-Fitted SCF Gradients <==

    Gradient:                    1
    J tasked:                  Yes
    K tasked:                  Yes
    wK tasked:                  No
    OpenMP threads:             16
    Integrals threads:          16
    Memory (MB):               375
    Schwarz Cutoff:          0E+00
    Fitting Condition:       1E-12

   => Auxiliary Basis Set <=

  Basis Set: (6-311++G(D,P) AUX)
    Blend: AUG-CC-PVTZ-JKFIT
    Number of shells: 220
    Number of basis function: 750
    Number of Cartesian functions: 930
    Spherical Harmonics?: true
    Max angular momentum: 4

  ==> DFT Potential <==

   => Composite Functional: M06-2X <= 

    Hybrid M06-2X Meta-GGA XC Functional

    Y. Zhao and D. G. Truhlar,  Theor. Chem. Acc., 120, 215, 2008


    Deriv               =              1
    GGA                 =           TRUE
    Meta                =           TRUE

    Exchange Hybrid     =           TRUE
    MP2 Hybrid          =          FALSE

   => Exchange Functionals <=

    1.0000   XC_HYB_MGGA_X_M06_2X

   => Exact (HF) Exchange <=

    0.5400               HF 

   => Correlation Functionals <=

    1.0000   XC_MGGA_C_M06_2X

   => Molecular Quadrature <=

    Radial Scheme       =       TREUTLER
    Pruning Scheme      =           FLAT
    Nuclear Scheme      =       TREUTLER

    BS radius alpha     =              1
    Pruning alpha       =              1
    Radial Points       =             75
    Spherical Points    =            302
    Total Points        =         226500
    Total Blocks        =           1758
    Max Points          =            256
    Max Functions       =            144


  -Total Gradient:
     Atom            X                  Y                   Z
    ------   -----------------  -----------------  -----------------
       1        0.000446735179    -0.000351109150     0.000092031461
       2       -0.000081619947     0.000200331659    -0.000079673414
       3       -0.000109881122    -0.000029923666     0.000098597371
       4       -0.000131321199     0.000032636208    -0.000082023963
       5       -0.000006740849    -0.000018407346    -0.000001695607
       6        0.000121273574    -0.000032009003    -0.000068036553
       7       -0.000009872797    -0.000006092138     0.000000726787
       8        0.000013472927    -0.000001303367    -0.000022099845
       9       -0.000002842412     0.000087245087     0.000019853656
      10       -0.000185650780     0.000157421964     0.000021692328


*** tstop() called on localhost.localdomain at Thu Jan 17 13:21:47 2019
Module time:
	user time   =      37.54 seconds =       0.63 minutes
	system time =       1.66 seconds =       0.03 minutes
	total time  =          2 seconds =       0.03 minutes
Total time:
	user time   =     668.19 seconds =      11.14 minutes
	system time =      16.23 seconds =       0.27 minutes
	total time  =         48 seconds =       0.80 minutes

  //>>>>>>>>>>>>>>>>>>>>>>>>>>>>>>>>>>>//
  //    Loading displacement 4 of 49   //
  //<<<<<<<<<<<<<<<<<<<<<<<<<<<<<<<<<<<//
gradient() will perform analytic gradient computation.

*** tstart() called on localhost.localdomain
*** at Thu Jan 17 13:21:47 2019

   => Loading Basis Set <=

    Name: 6-311++G(D,P)
    Role: ORBITAL
    Keyword: BASIS
    atoms 1, 6         entry C          line   119 file /root/psi4conda/share/psi4/basis/6-311ppg_d_p_.gbs 
    atoms 2-3          entry O          line   161 file /root/psi4conda/share/psi4/basis/6-311ppg_d_p_.gbs 
    atoms 4-5, 7-8, 10 entry H          line    42 file /root/psi4conda/share/psi4/basis/6-311ppg_d_p_.gbs 
    atoms 9            entry F          line   182 file /root/psi4conda/share/psi4/basis/6-311ppg_d_p_.gbs 


         ---------------------------------------------------------
                                   SCF
            by Justin Turney, Rob Parrish, Andy Simmonett
                             and Daniel Smith
                              RKS Reference
                       16 Threads,    500 MiB Core
         ---------------------------------------------------------

  ==> Geometry <==

    Molecular point group: c1
    Full point group: C1

    Geometry (in Angstrom), charge = 0, multiplicity = 1:

       Center              X                  Y                   Z               Mass       
    ------------   -----------------  -----------------  -----------------  -----------------
         C           -0.108047614975    -0.644532643204     0.050651865987    12.000000000000
         O           -1.120274391152    -0.620093925530    -0.731160236223    15.994914619560
         O            0.225496890016     0.911561526417    -0.083937340123    15.994914619560
         H           -0.718439406923     0.657793092809    -0.701049457607     1.007825032070
         H            1.355420616843     2.315454545402    -1.044543839766     1.007825032070
         C            1.408533053234     1.254343205537    -0.810954721161    12.000000000000
         H            1.473572305988     0.670566277844    -1.733344991627     1.007825032070
         H            2.273363931654     1.062266775786    -0.177819104864     1.007825032070
         F           -0.343767427729    -0.817366250442     1.371278332624    18.998403224000
         H            0.812516968832    -1.184708076455    -0.204079725035     1.007825032070

  Running in c1 symmetry.

  Rotational constants: A =      0.30759  B =      0.12485  C =      0.09981 [cm^-1]
  Rotational constants: A =   9221.42078  B =   3742.78499  C =   2992.21129 [MHz]
  Nuclear repulsion =  197.541904726252682

  Charge       = 0
  Multiplicity = 1
  Electrons    = 42
  Nalpha       = 21
  Nbeta        = 21

  ==> Algorithm <==

  SCF Algorithm Type is DF.
  DIIS enabled.
  MOM disabled.
  Fractional occupation disabled.
  Guess Type is SAD.
  Energy threshold   = 1.00e-08
  Density threshold  = 1.00e-08
  Integral threshold = 0.00e+00

  ==> Primary Basis <==

  Basis Set: 6-311++G(D,P)
    Blend: 6-311++G(D,P)
    Number of shells: 75
    Number of basis function: 145
    Number of Cartesian functions: 150
    Spherical Harmonics?: true
    Max angular momentum: 2

  ==> DFT Potential <==

   => Composite Functional: M06-2X <= 

    Hybrid M06-2X Meta-GGA XC Functional

    Y. Zhao and D. G. Truhlar,  Theor. Chem. Acc., 120, 215, 2008


    Deriv               =              1
    GGA                 =           TRUE
    Meta                =           TRUE

    Exchange Hybrid     =           TRUE
    MP2 Hybrid          =          FALSE

   => Exchange Functionals <=

    1.0000   XC_HYB_MGGA_X_M06_2X

   => Exact (HF) Exchange <=

    0.5400               HF 

   => Correlation Functionals <=

    1.0000   XC_MGGA_C_M06_2X

   => Molecular Quadrature <=

    Radial Scheme       =       TREUTLER
    Pruning Scheme      =           FLAT
    Nuclear Scheme      =       TREUTLER

    BS radius alpha     =              1
    Pruning alpha       =              1
    Radial Points       =             75
    Spherical Points    =            302
    Total Points        =         226500
    Total Blocks        =           1756
    Max Points          =            256
    Max Functions       =            144

   => Loading Basis Set <=

    Name: (6-311++G(D,P) AUX)
    Role: JKFIT
    Keyword: DF_BASIS_SCF
    atoms 1, 6         entry C          line   162 file /root/psi4conda/share/psi4/basis/aug-cc-pvtz-jkfit.gbs 
    atoms 2-3          entry O          line   286 file /root/psi4conda/share/psi4/basis/aug-cc-pvtz-jkfit.gbs 
    atoms 4-5, 7-8, 10 entry H          line    70 file /root/psi4conda/share/psi4/basis/aug-cc-pvtz-jkfit.gbs 
    atoms 9            entry F          line   348 file /root/psi4conda/share/psi4/basis/aug-cc-pvtz-jkfit.gbs 

  ==> Pre-Iterations <==

   -------------------------------------------------------
    Irrep   Nso     Nmo     Nalpha   Nbeta   Ndocc  Nsocc
   -------------------------------------------------------
     A        145     145       0       0       0       0
   -------------------------------------------------------
    Total     145     145      21      21      21       0
   -------------------------------------------------------

  ==> Integral Setup <==

  DFHelper Memory: AOs need 0.152 [GiB]; user supplied 0.366 [GiB]. Using in-core AOs.

  ==> MemDFJK: Density-Fitted J/K Matrices <==

    J tasked:                   Yes
    K tasked:                   Yes
    wK tasked:                   No
    OpenMP threads:              16
    Memory (MB):                375
    Algorithm:                 Core
    Schwarz Cutoff:           1E-12
    Mask sparsity (%):       2.5398
    Fitting Condition:        1E-12

   => Auxiliary Basis Set <=

  Basis Set: (6-311++G(D,P) AUX)
    Blend: AUG-CC-PVTZ-JKFIT
    Number of shells: 220
    Number of basis function: 750
    Number of Cartesian functions: 930
    Spherical Harmonics?: true
    Max angular momentum: 4

  Minimum eigenvalue in the overlap matrix is 5.4853882171E-04.
  Using Symmetric Orthogonalization.

  SCF Guess: Superposition of Atomic Densities via on-the-fly atomic UHF.

  ==> Iterations <==

                           Total Energy        Delta E     RMS |[F,P]|

   @DF-RKS iter   0:  -330.39754793456012   -3.30398e+02   1.03153e-01 
   @DF-RKS iter   1:  -329.30159878936513    1.09595e+00   1.45618e-02 
   @DF-RKS iter   2:  -329.29341098317059    8.18781e-03   1.25063e-02 DIIS
   @DF-RKS iter   3:  -329.40879625473167   -1.15385e-01   1.43312e-03 DIIS
   @DF-RKS iter   4:  -329.40970427153860   -9.08017e-04   1.10295e-03 DIIS
   @DF-RKS iter   5:  -329.41025094355774   -5.46672e-04   2.35041e-04 DIIS
   @DF-RKS iter   6:  -329.41029521195912   -4.42684e-05   7.44855e-05 DIIS
   @DF-RKS iter   7:  -329.41029993515303   -4.72319e-06   2.10339e-05 DIIS
   @DF-RKS iter   8:  -329.41030041569456   -4.80542e-07   9.72874e-06 DIIS
   @DF-RKS iter   9:  -329.41030049438035   -7.86858e-08   2.52474e-06 DIIS
   @DF-RKS iter  10:  -329.41030050165284   -7.27249e-09   6.63410e-07 DIIS
   @DF-RKS iter  11:  -329.41030050216830   -5.15456e-10   1.88010e-07 DIIS
   @DF-RKS iter  12:  -329.41030050221161   -4.33147e-11   4.38520e-08 DIIS
   @DF-RKS iter  13:  -329.41030050221605   -4.43379e-12   9.57705e-09 DIIS

  ==> Post-Iterations <==

    Orbital Energies [Eh]
    ---------------------

    Doubly Occupied:                                                      

       1A    -25.250146     2A    -19.702399     3A    -19.602923  
       4A    -10.736533     5A    -10.625278     6A     -1.383492  
       7A     -1.243679     8A     -1.132889     9A     -0.837999  
[...]
  Generating complete list of displacements from unique ones.


-------------------------------------------------------------


  ==> Harmonic Vibrational Analysis <==

  non-mass-weighted Hessian:       Symmetric? True   Hermitian? True   Lin Dep Dim?  6 (0)
  projection of translations (True) and rotations (True) removed 6 degrees of freedom (6)
  total projector:                 Symmetric? True   Hermitian? True   Lin Dep Dim?  6 (6)
  mass-weighted Hessian:           Symmetric? True   Hermitian? True   Lin Dep Dim?  6 (0)
  pre-proj  low-frequency mode:    0.0000i [cm^-1]
  pre-proj  low-frequency mode:    0.0000i [cm^-1]
  pre-proj  low-frequency mode:    0.0000i [cm^-1]
  pre-proj  low-frequency mode:    0.0000i [cm^-1]
  pre-proj  low-frequency mode:    0.0000  [cm^-1]
  pre-proj  low-frequency mode:    0.0000  [cm^-1]
  pre-proj  low-frequency mode:    0.0000  [cm^-1]
  pre-proj  all modes:['1538.3156i' '0.0000i' '0.0000i' '0.0000i' '0.0000' '0.0000' '0.0000'
 '114.2824' '205.8383' '270.9903' '361.0034' '603.2726' '697.9095'
 '786.3105' '1016.4058' '1119.8405' '1163.5314' '1203.0522' '1249.9719'
 '1280.7605' '1373.5826' '1473.1292' '1504.0163' '1511.1463' '1535.9751'
 '2158.6565' '3068.5751' '3082.5193' '3158.4253' '3188.7500']
  projected mass-weighted Hessian: Symmetric? True   Hermitian? True   Lin Dep Dim?  6 (6)
  post-proj low-frequency mode: 1538.3156i [cm^-1] (V)
  post-proj low-frequency mode:    0.0000i [cm^-1] (TR)
  post-proj low-frequency mode:    0.0000i [cm^-1] (TR)
  post-proj low-frequency mode:    0.0000i [cm^-1] (TR)
  post-proj low-frequency mode:    0.0000  [cm^-1] (TR)
  post-proj low-frequency mode:    0.0000  [cm^-1] (TR)
  post-proj low-frequency mode:    0.0000  [cm^-1] (TR)
  post-proj  all modes:['1538.3156i' '0.0000i' '0.0000i' '0.0000i' '0.0000' '0.0000' '0.0000'
 '114.2824' '205.8383' '270.9903' '361.0034' '603.2726' '697.9095'
 '786.3105' '1016.4058' '1119.8405' '1163.5314' '1203.0522' '1249.9719'
 '1280.7605' '1373.5826' '1473.1292' '1504.0163' '1511.1463' '1535.9751'
 '2158.6565' '3068.5751' '3082.5193' '3158.4253' '3188.7500']

  Vibration                       1                   8                   9           
  Freq [cm^-1]                1538.3156i           114.2824            205.8383       
  Irrep                           A                   A                   A           
  Reduced mass [u]              1.1915              3.3293              1.1104        
  Force const [mDyne/A]        -1.6612              0.0256              0.0277        
  Turning point v=0 [a0]        0.0000              0.5625              0.7258        
  RMS dev v=0 [a0 u^1/2]        0.0000              0.7258              0.5408        
  Char temp [K]                 0.0000             164.4267            296.1550       
  ----------------------------------------------------------------------------------
      1   C               -0.07 -0.07 -0.03    0.07  0.01  0.05   -0.00 -0.01 -0.00   
      2   O                0.01 -0.05  0.02    0.17  0.04 -0.08   -0.01 -0.04  0.00   
      3   O               -0.01  0.04 -0.01    0.07  0.03  0.20   -0.01 -0.02 -0.03   
      4   H                0.61  0.74  0.24    0.02  0.07  0.23   -0.01 -0.02 -0.03   
      5   H                0.03  0.01 -0.01   -0.10 -0.03 -0.09    0.26  0.15  0.55   
      6   C                0.00  0.01 -0.01   -0.14 -0.05 -0.19    0.01  0.02  0.02   
      7   H               -0.01 -0.01  0.01   -0.57  0.01 -0.26   -0.22  0.45 -0.26   
      8   H               -0.04 -0.01  0.03    0.07 -0.21 -0.53    0.02 -0.51 -0.15   
      9   F                0.00  0.00  0.00   -0.13 -0.03  0.01    0.01  0.04  0.01   
     10   H                0.03  0.05  0.01    0.10  0.02  0.16   -0.00 -0.02  0.01   

  Vibration                       10                  11                  12          
  Freq [cm^-1]                 270.9903            361.0034            603.2726       
  Irrep                           A                   A                   A           
  Reduced mass [u]              3.2921              7.0327              9.3048        
  Force const [mDyne/A]         0.1424              0.5400              1.9952        
  Turning point v=0 [a0]        0.3674              0.2178              0.1465        
  RMS dev v=0 [a0 u^1/2]        0.4713              0.4084              0.3159        
  Char temp [K]                389.8941            519.4028            867.9736       
  ----------------------------------------------------------------------------------
      1   C               -0.03 -0.15  0.02   -0.01 -0.05 -0.18   -0.23 -0.06  0.11   
      2   O               -0.05  0.01  0.05   -0.05 -0.01 -0.16    0.10  0.24 -0.40   
      3   O                0.18 -0.15 -0.04    0.02 -0.29  0.24   -0.07 -0.08 -0.14   
      4   H                0.07 -0.09  0.05   -0.07  0.19  0.34    0.18  0.07 -0.36   
      5   H               -0.34  0.26  0.02   -0.44 -0.11  0.07   -0.14  0.03  0.09   
      6   C                0.04  0.25 -0.08   -0.14 -0.08  0.13   -0.05  0.01 -0.02   
      7   H                0.18  0.37 -0.15   -0.10 -0.13  0.17    0.04  0.10 -0.07   
      8   H                0.15  0.51 -0.16   -0.05  0.17  0.08   -0.08  0.04  0.01   
      9   F               -0.12  0.01  0.03    0.16  0.34 -0.06    0.18 -0.10  0.40   
     10   H               -0.12 -0.32  0.06   -0.16 -0.30 -0.19   -0.35 -0.28  0.21   

  Vibration                       13                  14                  15          
  Freq [cm^-1]                 697.9095            786.3105           1016.4058       
  Irrep                           A                   A                   A           
  Reduced mass [u]              4.1787              7.2574              1.9525        
  Force const [mDyne/A]         1.1992              2.6438              1.1885        
  Turning point v=0 [a0]        0.2032              0.1453              0.2463        
  RMS dev v=0 [a0 u^1/2]        0.2937              0.2767              0.2434        
  Char temp [K]               1004.1348           1131.3240           1462.3795       
  ----------------------------------------------------------------------------------
      1   C                0.10  0.37 -0.03    0.20 -0.30  0.02   -0.10  0.03  0.16   
      2   O                0.04  0.04  0.06    0.20  0.33  0.19    0.00 -0.01  0.00   
      3   O               -0.03 -0.27 -0.09   -0.09 -0.06 -0.21    0.08  0.00 -0.03   
      4   H                0.14  0.57  0.03    0.06  0.07  0.03    0.51 -0.19 -0.56   
      5   H               -0.34 -0.01  0.21   -0.01 -0.07  0.13   -0.33 -0.06  0.08   
      6   C               -0.02 -0.03 -0.01   -0.25 -0.09  0.11   -0.09 -0.05  0.09   
      7   H                0.10  0.09 -0.07   -0.00 -0.05  0.09   -0.22  0.05  0.01   
      8   H               -0.08  0.07  0.08   -0.39 -0.17  0.28    0.17  0.11 -0.20   
      9   F               -0.06 -0.07  0.03   -0.05  0.05 -0.09    0.04  0.01 -0.11   
     10   H                0.18  0.41  0.11    0.14 -0.45  0.07    0.00  0.23  0.09   

  Vibration                       16                  17                  18          
  Freq [cm^-1]                1119.8405           1163.5314           1203.0522       
  Irrep                           A                   A                   A           
  Reduced mass [u]              7.8215              1.5529              1.5231        
  Force const [mDyne/A]         5.7790              1.2386              1.2988        
  Turning point v=0 [a0]        0.1172              0.2581              0.2563        
  RMS dev v=0 [a0 u^1/2]        0.2319              0.2275              0.2237        
  Char temp [K]               1611.1987           1674.0601           1730.9217       
  ----------------------------------------------------------------------------------
      1   C                0.14  0.05 -0.32   -0.06  0.02  0.08   -0.04  0.06  0.08   
      2   O               -0.11 -0.09 -0.03    0.01 -0.03 -0.03    0.01 -0.02 -0.01   
      3   O                0.34  0.15 -0.15    0.10  0.04 -0.01    0.05 -0.07 -0.03   
      4   H                0.02 -0.08 -0.02   -0.25  0.03  0.36   -0.05  0.06  0.09   
      5   H               -0.06 -0.10 -0.06    0.00  0.03  0.31    0.56  0.08 -0.36   
      6   C               -0.30 -0.06  0.24   -0.10 -0.06 -0.06   -0.06  0.13  0.02   
      7   H               -0.46 -0.13  0.25    0.53  0.14 -0.14   -0.24 -0.32  0.29   
      8   H               -0.08 -0.07 -0.05   -0.41  0.03  0.39   -0.20 -0.34  0.07   
      9   F               -0.07 -0.03  0.22    0.02 -0.00 -0.04    0.02 -0.01 -0.04   
     10   H                0.12  0.07 -0.37   -0.03  0.10  0.08   -0.19 -0.19  0.10   

  Vibration                       19                  20                  21          
  Freq [cm^-1]                1249.9719           1280.7605           1373.5826       
  Irrep                           A                   A                   A           
  Reduced mass [u]              1.2867              1.2806              1.1925        
  Force const [mDyne/A]         1.1845              1.2376              1.3256        
  Turning point v=0 [a0]        0.2736              0.2709              0.2711        
  RMS dev v=0 [a0 u^1/2]        0.2195              0.2168              0.2093        
  Char temp [K]               1798.4285           1842.7264           1976.2765       
  ----------------------------------------------------------------------------------
      1   C                0.03 -0.09 -0.00   -0.05 -0.03  0.05    0.07  0.02 -0.03   
      2   O               -0.07  0.04 -0.03    0.01  0.00 -0.02   -0.08 -0.00 -0.02   
      3   O                0.01 -0.05  0.02    0.01  0.00 -0.08    0.00  0.03  0.01   
      4   H                0.09 -0.12 -0.07   -0.49  0.19  0.54    0.09  0.05 -0.07   
      5   H                0.24  0.03 -0.10   -0.17 -0.06 -0.09   -0.08  0.01  0.09   
      6   C               -0.02  0.04 -0.02    0.04 -0.02  0.08    0.00 -0.01 -0.01   
      7   H                0.08 -0.06  0.04   -0.29  0.04  0.02   -0.05 -0.03  0.01   
      8   H               -0.09 -0.10  0.05    0.31  0.10 -0.24   -0.04  0.02  0.06   
      9   F                0.00  0.01  0.02    0.01 -0.00 -0.02    0.02 -0.01 -0.02   
     10   H                0.55  0.71  0.20    0.14  0.21  0.24    0.10 -0.39  0.88   

  Vibration                       22                  23                  24          
  Freq [cm^-1]                1473.1292           1504.0163           1511.1463       
  Irrep                           A                   A                   A           
  Reduced mass [u]              1.2706              1.0953              1.0513        
  Force const [mDyne/A]         1.6245              1.4598              1.4145        
  Turning point v=0 [a0]        0.2536              0.2703              0.2753        
  RMS dev v=0 [a0 u^1/2]        0.2022              0.2001              0.1996        
  Char temp [K]               2119.5017           2163.9412           2174.1997       
  ----------------------------------------------------------------------------------
      1   C               -0.06  0.02 -0.07    0.04  0.00  0.04    0.02 -0.00  0.02   
      2   O                0.04 -0.00  0.03   -0.03 -0.00 -0.02   -0.01 -0.00 -0.01   
      3   O               -0.01 -0.01  0.02    0.00 -0.01  0.00   -0.01 -0.01 -0.01   
      4   H               -0.03 -0.01 -0.07    0.06  0.04  0.00   -0.00  0.03  0.01   
      5   H                0.52 -0.05 -0.21    0.25 -0.11 -0.39    0.42  0.13  0.52   
      6   C               -0.09 -0.03  0.04    0.02 -0.05  0.02   -0.01 -0.03 -0.04   
      7   H                0.47  0.27 -0.11   -0.37  0.49 -0.34   -0.26 -0.29  0.14   
      8   H                0.30  0.23 -0.40   -0.17  0.33  0.37    0.11  0.59 -0.00   
      9   F                0.01 -0.00  0.00   -0.00 -0.00 -0.00   -0.00  0.00  0.00   
     10   H               -0.02 -0.03  0.21   -0.02 -0.04 -0.07   -0.00  0.00 -0.07   

  Vibration                       25                  26                  27          
  Freq [cm^-1]                1535.9751           2158.6565           3068.5751       
  Irrep                           A                   A                   A           
  Reduced mass [u]              2.6780              1.0550              1.0379        
  Force const [mDyne/A]         3.7225              2.8965              5.7580        
  Turning point v=0 [a0]        0.1711              0.2299              0.1944        
  RMS dev v=0 [a0 u^1/2]        0.1980              0.1670              0.1401        
  Char temp [K]               2209.9228           3105.8213           4414.9896       
  ----------------------------------------------------------------------------------
      1   C                0.24 -0.01  0.21   -0.00  0.04 -0.01   -0.02  0.01  0.00   
      2   O               -0.14 -0.01 -0.11   -0.00  0.01 -0.01    0.00  0.00  0.00   
      3   O               -0.03  0.02 -0.02   -0.03 -0.00 -0.03    0.00  0.00 -0.00   
      4   H                0.14  0.33  0.16    0.52 -0.58  0.62   -0.01 -0.01 -0.01   
      5   H                0.06 -0.03 -0.06    0.01 -0.01  0.00    0.02 -0.38  0.07   
      6   C               -0.06 -0.00  0.04    0.00 -0.00  0.00    0.03 -0.01 -0.04   
      7   H                0.48  0.04  0.04    0.00  0.01  0.01   -0.04  0.42  0.66   
      8   H                0.26 -0.11 -0.42    0.03  0.02 -0.03   -0.35  0.07 -0.26   
      9   F               -0.02  0.00 -0.01   -0.00 -0.00  0.00    0.00  0.00  0.00   
     10   H               -0.04 -0.22 -0.40   -0.04 -0.02  0.01    0.17 -0.09 -0.05   

  Vibration                       28                  29                  30          
  Freq [cm^-1]                3082.5193           3158.4253           3188.7500       
  Irrep                           A                   A                   A           
  Reduced mass [u]              1.0880              1.1007              1.1075        
  Force const [mDyne/A]         6.0911              6.4693              6.6349        
  Turning point v=0 [a0]        0.1895              0.1861              0.1846        
  RMS dev v=0 [a0 u^1/2]        0.1397              0.1381              0.1374        
  Char temp [K]               4435.0522           4544.2639           4587.8943       
  ----------------------------------------------------------------------------------
      1   C               -0.07  0.04  0.02    0.00 -0.00 -0.00    0.00 -0.00 -0.00   
      2   O                0.00 -0.00 -0.00    0.00  0.00  0.00   -0.00  0.00  0.00   
      3   O                0.00 -0.00  0.00   -0.00 -0.00  0.00   -0.00  0.00 -0.00   
      4   H               -0.01 -0.02  0.01    0.00  0.00 -0.00   -0.00 -0.00  0.00   
      5   H               -0.00  0.10 -0.02   -0.03  0.43 -0.11   -0.04  0.79 -0.16   
      6   C               -0.01  0.00  0.01   -0.04 -0.05 -0.06    0.04 -0.08  0.04   
      7   H                0.01 -0.08 -0.13   -0.03  0.31  0.48    0.01  0.02  0.06   
      8   H                0.07 -0.01  0.05    0.54 -0.14  0.40   -0.46  0.09 -0.35   
      9   F                0.00 -0.00  0.00   -0.00 -0.00  0.00   -0.00  0.00 -0.00   
     10   H                0.82 -0.48 -0.24   -0.01  0.00  0.00   -0.01  0.01  0.00   

  ==> Thermochemistry Components <==

  Entropy, S
    Electronic S            0.000 [cal/(mol K)]        0.000 [J/(mol K)]       0.00000000 [mEh/K] (multiplicity = 1)
    Translational S        39.054 [cal/(mol K)]      163.402 [J/(mol K)]       0.06223639 [mEh/K] (mol. weight = 80.0274 [u], P = 101325.00 [Pa])
    Rotational S           25.546 [cal/(mol K)]      106.885 [J/(mol K)]       0.04071024 [mEh/K] (symmetry no. = 1)
    Vibrational S           9.318 [cal/(mol K)]       38.987 [J/(mol K)]       0.01484945 [mEh/K]
  Total S                  73.918 [cal/(mol K)]      309.274 [J/(mol K)]       0.11779607 [mEh/K]
  Correction S              0.000 [cal/(mol K)]        0.000 [J/(mol K)]       0.00000000 [mEh/K]

  Constant volume heat capacity, Cv
    Electronic Cv           0.000 [cal/(mol K)]        0.000 [J/(mol K)]       0.00000000 [mEh/K]
    Translational Cv        2.981 [cal/(mol K)]       12.472 [J/(mol K)]       0.00475022 [mEh/K]
    Rotational Cv           2.981 [cal/(mol K)]       12.472 [J/(mol K)]       0.00475022 [mEh/K]
    Vibrational Cv         11.385 [cal/(mol K)]       47.635 [J/(mol K)]       0.01814313 [mEh/K]
  Total Cv                 17.347 [cal/(mol K)]       72.578 [J/(mol K)]       0.02764358 [mEh/K]
  Correction Cv             0.000 [cal/(mol K)]        0.000 [J/(mol K)]       0.00000000 [mEh/K]

  Constant pressure heat capacity, Cp
    Electronic Cp           0.000 [cal/(mol K)]        0.000 [J/(mol K)]       0.00000000 [mEh/K]
    Translational Cp        4.968 [cal/(mol K)]       20.786 [J/(mol K)]       0.00791704 [mEh/K]
    Rotational Cp           2.981 [cal/(mol K)]       12.472 [J/(mol K)]       0.00475022 [mEh/K]
    Vibrational Cp         11.385 [cal/(mol K)]       47.635 [J/(mol K)]       0.01814313 [mEh/K]
  Total Cp                 19.334 [cal/(mol K)]       80.893 [J/(mol K)]       0.03081039 [mEh/K]
  Correction Cp             0.000 [cal/(mol K)]        0.000 [J/(mol K)]       0.00000000 [mEh/K]

  ==> Thermochemistry Energy Analysis <==

  Raw electronic energy, E0
  Total E0, Electronic energy at well bottom at 0 [K]                 -329.41030082 [Eh]

  Zero-point energy, ZPE_vib = Sum_i nu_i / 2
    Electronic ZPE          0.000 [kcal/mol]        0.000 [kJ/mol]       0.00000000 [Eh]
    Translational ZPE       0.000 [kcal/mol]        0.000 [kJ/mol]       0.00000000 [Eh]
    Rotational ZPE          0.000 [kcal/mol]        0.000 [kJ/mol]       0.00000000 [Eh]
    Vibrational ZPE        45.929 [kcal/mol]      192.168 [kJ/mol]       0.07319283 [Eh]       16063.967 [cm^-1]
  Correction ZPE           45.929 [kcal/mol]      192.168 [kJ/mol]       0.07319283 [Eh]       16063.967 [cm^-1]
  Total ZPE, Electronic energy at 0 [K]                               -329.33710799 [Eh]

  Thermal Energy, E (includes ZPE)
    Electronic E            0.000 [kcal/mol]        0.000 [kJ/mol]       0.00000000 [Eh]
    Translational E         0.889 [kcal/mol]        3.718 [kJ/mol]       0.00141628 [Eh]
    Rotational E            0.889 [kcal/mol]        3.718 [kJ/mol]       0.00141628 [Eh]
    Vibrational E          47.540 [kcal/mol]      198.909 [kJ/mol]       0.07576041 [Eh]
  Correction E             49.318 [kcal/mol]      206.346 [kJ/mol]       0.07859297 [Eh]
  Total E, Electronic energy at  298.15 [K]                           -329.33170784 [Eh]

  Enthalpy, H_trans = E_trans + k_B * T
    Electronic H            0.000 [kcal/mol]        0.000 [kJ/mol]       0.00000000 [Eh]
    Translational H         1.481 [kcal/mol]        6.197 [kJ/mol]       0.00236046 [Eh]
    Rotational H            0.889 [kcal/mol]        3.718 [kJ/mol]       0.00141628 [Eh]
    Vibrational H          47.540 [kcal/mol]      198.909 [kJ/mol]       0.07576041 [Eh]
  Correction H             49.910 [kcal/mol]      208.825 [kJ/mol]       0.07953716 [Eh]
  Total H, Enthalpy at  298.15 [K]                                    -329.33076366 [Eh]

  Gibbs free energy, G = H - T * S
    Electronic G            0.000 [kcal/mol]        0.000 [kJ/mol]       0.00000000 [Eh]
    Translational G       -10.163 [kcal/mol]      -42.521 [kJ/mol]      -0.01619531 [Eh]
    Rotational G           -6.728 [kcal/mol]      -28.149 [kJ/mol]      -0.01072148 [Eh]
    Vibrational G          44.762 [kcal/mol]      187.285 [kJ/mol]       0.07133305 [Eh]
  Correction G             27.872 [kcal/mol]      116.615 [kJ/mol]       0.04441626 [Eh]
  Total G, Free enthalpy at  298.15 [K]                               -329.36588456 [Eh]

    Psi4 stopped on: Thursday, 17 January 2019 01:30PM
    Psi4 wall time for execution: 0:09:55.38

*** Psi4 exiting successfully. Buy a developer a beer!
