[Molden Format]

[FREQ]
       -1538.3155831379
         114.2824277183
         205.8383063831
         270.9903007307
         361.0034361156
         603.2725680522
         697.9094780804
         786.3104747904
        1016.4058260384
        1119.8404756455
        1163.5314409066
        1203.0522243714
        1249.9718679876
        1280.7605108745
        1373.5826071281
        1473.1292049099
        1504.0162566131
        1511.1462546448
        1535.9751099085
        2158.6564855631
        3068.5751096168
        3082.5192883739
        3158.4252929241
        3188.7499914539

[FR-COORD]
C         -0.2041804016       -1.2193198740        0.0957214739
O         -2.1170268885       -1.1715563608       -1.3816864232
O          0.4261412463        1.7228321983       -0.1586234894
H         -1.3576461440        1.2432931705       -1.3247924247
H          2.5614096240        4.3757810862       -1.9739165520
C          2.6617595171        2.3705714052       -1.5324923115
H          2.7846528588        1.2673874499       -3.2755547867
H          4.2960514983        2.0075872163       -0.3360410452
F         -0.6496386825       -1.5443509741        2.5913453139
H          1.5354110269       -2.2385541850       -0.3856516729

[FR-NORM-COORD]
vibration 1
          -0.0697760011       -0.0690408479       -0.0337383308
           0.0148581877       -0.0458510275        0.0178290847
          -0.0071189455        0.0374203927       -0.0074022961
           0.6111247768        0.7401949918        0.2365894608
           0.0275904957        0.0083445910       -0.0147052432
           0.0029175855        0.0106228111       -0.0100680695
          -0.0097910884       -0.0138543706        0.0106248841
          -0.0360064847       -0.0114733135        0.0254660800
           0.0026303268        0.0027873455        0.0045779977
           0.0307425981        0.0536179942        0.0118400714
vibration 2
           0.0688439836        0.0149189211        0.0533992954
           0.1700674121        0.0441137794       -0.0806477870
           0.0688911883        0.0296954446        0.2004725627
           0.0235884264        0.0695540798        0.2326429524
          -0.0967354410       -0.0294998620       -0.0903617232
          -0.1415171728       -0.0540920202       -0.1934190563
          -0.5653951802        0.0071460818       -0.2628314098
           0.0674912780       -0.2102953569       -0.5277998747
          -0.1303659401       -0.0300613815        0.0134679947
           0.1014262997        0.0248004165        0.1599514712
vibration 3
          -0.0008323124       -0.0092844728       -0.0036442831
          -0.0053114965       -0.0414720689        0.0015690218
          -0.0112947421       -0.0230973364       -0.0331653538
          -0.0052929746       -0.0235268216       -0.0311467253
           0.2587044073        0.1491758629        0.5499916503
           0.0105021733        0.0207099929        0.0221219893
          -0.2214509166        0.4498604712       -0.2646481054
           0.0188611275       -0.5057146636       -0.1478222766
           0.0053125846        0.0445625522        0.0085599256
          -0.0025529334       -0.0211172038        0.0137090388
vibration 4
          -0.0280294486       -0.1467176193        0.0241815887
          -0.0463965829        0.0148044916        0.0534188260
           0.1844296408       -0.1519183559       -0.0356852454
           0.0708002539       -0.0876074817        0.0515601942
          -0.3446924613        0.2605648089        0.0163145595
           0.0393112294        0.2546037655       -0.0813188303
           0.1838723997        0.3722915921       -0.1460766075
           0.1522656553        0.5085130968       -0.1597330578
          -0.1200224015        0.0083940174        0.0306452122
          -0.1247312638       -0.3204820846        0.0591238070
vibration 5
          -0.0096582922       -0.0454454776       -0.1802150306
          -0.0453213121       -0.0072741183       -0.1582232411
           0.0221998689       -0.2937262880        0.2426602240
          -0.0714030535        0.1915984858        0.3385808376
          -0.4351607747       -0.1070393108        0.0684370009
          -0.1398240342       -0.0761417360        0.1300198963
          -0.1041740387       -0.1302269797        0.1699426770
          -0.0506951028        0.1726799619        0.0789661842
           0.1573946730        0.3392303189       -0.0641606088
          -0.1587828518       -0.2969940662       -0.1888531677
vibration 6
          -0.2339569672       -0.0596830463        0.1111250148
           0.0989389235        0.2409781397       -0.3975824105
          -0.0744650021       -0.0792533007       -0.1378621167
           0.1828943566        0.0682583136       -0.3607072423
          -0.1394827986        0.0322731223        0.0877175070
          -0.0536782294        0.0101621743       -0.0189676038
           0.0397359405        0.1036223159       -0.0727810582
          -0.0755312493        0.0362716845        0.0131668233
           0.1792274579       -0.1025174259        0.3993070804
          -0.3498100103       -0.2849342881        0.2058990794
vibration 7
           0.1032770060        0.3692795546       -0.0272278925
           0.0361706169        0.0377244392        0.0643962558
          -0.0308330778       -0.2709443895       -0.0945551049
           0.1441363543        0.5672491758        0.0305767983
          -0.3384558193       -0.0098967378        0.2075779406
          -0.0230988907       -0.0339823216       -0.0141670087
           0.1014100456        0.0874379753       -0.0684909620
          -0.0849348256        0.0661626101        0.0818945458
          -0.0551965938       -0.0746853611        0.0325070141
           0.1789717032        0.4059759741        0.1071802071
vibration 8
           0.1961316749       -0.3014542828        0.0153340842
           0.2029676178        0.3300643297        0.1926677652
          -0.0917066221       -0.0558467103       -0.2128651370
           0.0565215084        0.0710886977        0.0292928715
          -0.0117143567       -0.0698417504        0.1261509210
          -0.2543441388       -0.0906219405        0.1072682103
          -0.0000917675       -0.0517827780        0.0860960055
          -0.3943717013       -0.1661350642        0.2843593282
          -0.0458388429        0.0519683743       -0.0921289966
           0.1410925967       -0.4466276326        0.0715572880
vibration 9
          -0.1004943064        0.0306407088        0.1588393076
           0.0007488723       -0.0056164896        0.0032644678
           0.0844966617        0.0024908690       -0.0276618299
           0.5149333597       -0.1924470042       -0.5576247975
          -0.3279888972       -0.0602907270        0.0829203090
          -0.0851222026       -0.0511620303        0.0899855644
          -0.2225399747        0.0491234389        0.0076677980
           0.1664421900        0.1120155000       -0.2017010922
           0.0384571310        0.0082359068       -0.1058571544
           0.0013974952        0.2302943091        0.0887285365
vibration 10
           0.1369642544        0.0535462989       -0.3244062796
          -0.1057560233       -0.0895952331       -0.0272099287
           0.3438180393        0.1514703853       -0.1545840323
           0.0156547014       -0.0808824503       -0.0187202591
          -0.0625430134       -0.1025641601       -0.0553849496
          -0.3016473001       -0.0589941625        0.2352420110
          -0.4566163608       -0.1349578669        0.2495445380
          -0.0810691179       -0.0709189731       -0.0505432340
          -0.0718003329       -0.0315084104        0.2223124396
           0.1207101438        0.0661483784       -0.3688186553
vibration 11
          -0.0648754714        0.0191686098        0.0809064509
           0.0064553463       -0.0257351186       -0.0280383792
           0.1027888829        0.0394591013       -0.0059639290
          -0.2475420094        0.0333892459        0.3599804671
           0.0043967978        0.0300908719        0.3123607064
          -0.0984249002       -0.0599514608       -0.0611237410
           0.5342043564        0.1427665500       -0.1446904532
          -0.4065759100        0.0287367350        0.3943977621
           0.0186389795       -0.0036993498       -0.0370527907
          -0.0252403130        0.1025375054        0.0805217301
vibration 12
          -0.0425470654        0.0609430218        0.0781584979
           0.0135711803       -0.0204013005       -0.0090312674
           0.0511497417       -0.0661180220       -0.0260890497
          -0.0545625464        0.0617522781        0.0914749661
           0.5630300502        0.0782013903       -0.3556378786
          -0.0584673584        0.1293771227        0.0177487211
          -0.2395712695       -0.3241051868        0.2907923528
          -0.2041736423       -0.3427107008        0.0729089940
           0.0158170643       -0.0093415949       -0.0416161335
          -0.1872949584       -0.1900252848        0.1003969943
vibration 13
           0.0283814414       -0.0880369532       -0.0002465730
          -0.0693114963        0.0376529062       -0.0339003651
           0.0053780273       -0.0466197692        0.0219796246
           0.0911769138       -0.1165624400       -0.0658240890
           0.2447756755        0.0348563357       -0.0986455111
          -0.0164120860        0.0379168874       -0.0230816670
           0.0766247650       -0.0607624127        0.0410207297
          -0.0939902438       -0.0962671927        0.0477434074
           0.0000145659        0.0142533887        0.0180584235
           0.5532917947        0.7091282452        0.2022441885
vibration 14
          -0.0452045013       -0.0284564702        0.0473895411
           0.0098978728        0.0007651234       -0.0211681825
           0.0088661792        0.0039938287       -0.0802165186
          -0.4929826887        0.1859727841        0.5437885350
          -0.1695758240       -0.0632291452       -0.0873444219
           0.0396822246       -0.0166704825        0.0836429187
          -0.2861911926        0.0386124314        0.0245015852
           0.3066358687        0.1038086729       -0.2357921275
           0.0143240890       -0.0004631655       -0.0232260120
           0.1400456283        0.2053572127        0.2415452563
vibration 15
           0.0665124341        0.0199866054       -0.0282034224
          -0.0757144246       -0.0017748626       -0.0215968741
           0.0014845711        0.0302155200        0.0079557778
           0.0921888633        0.0471482967       -0.0690147023
          -0.0794443458        0.0063004249        0.0869817540
           0.0023578760       -0.0092600391       -0.0085829924
          -0.0451647690       -0.0262074614        0.0055196483
          -0.0431818177        0.0209097692        0.0589208283
           0.0178863066       -0.0123290414       -0.0165967963
           0.0964838526       -0.3948308306        0.8849605596
vibration 16
          -0.0582879978        0.0249939414       -0.0661344524
           0.0391904900       -0.0016762683        0.0331708859
          -0.0149062860       -0.0147784479        0.0183637140
          -0.0279020009       -0.0053133593       -0.0665982611
           0.5186951587       -0.0479489232       -0.2118769243
          -0.0884545983       -0.0309867697        0.0443947665
           0.4695495841        0.2667372918       -0.1149946677
           0.3046056964        0.2288230818       -0.3978787996
           0.0062742896       -0.0040046836        0.0009506303
          -0.0213933959       -0.0343023577        0.2143876394
vibration 17
           0.0411570042        0.0034521536        0.0388595504
          -0.0265341585       -0.0017871471       -0.0197199022
           0.0003411808       -0.0098433543        0.0029582558
           0.0590046255        0.0385248038        0.0004027997
           0.2479580356       -0.1076105893       -0.3870488557
           0.0183535635       -0.0468897979        0.0233929986
          -0.3713498876        0.4865272731       -0.3366802479
          -0.1698496858        0.3270554456        0.3659069074
          -0.0023121876       -0.0001365793       -0.0024417983
          -0.0150568555       -0.0401332057       -0.0717614650
vibration 18
           0.0181139256       -0.0035945948        0.0192019989
          -0.0104818302       -0.0008341634       -0.0086651082
          -0.0063634473       -0.0066113990       -0.0109592360
          -0.0041738388        0.0333814074        0.0055640486
           0.4190708732        0.1270051737        0.5229991767
          -0.0142850986       -0.0259921031       -0.0427451083
          -0.2571551850       -0.2908210621        0.1358339061
           0.1087483475        0.5860367899       -0.0011257114
          -0.0021406825        0.0007543098        0.0000707758
          -0.0043788269        0.0006284969       -0.0728292546
vibration 19
           0.2356572599       -0.0075022272        0.2083853931
          -0.1442637566       -0.0087374028       -0.1126724796
          -0.0290103070        0.0162177379       -0.0192952030
           0.1390533354        0.3289445547        0.1558641802
           0.0624768905       -0.0281908398       -0.0631398497
          -0.0556993541       -0.0045035907        0.0385093735
           0.4784212167        0.0363870679        0.0438744617
           0.2608263880       -0.1129368703       -0.4175008927
          -0.0155719131        0.0013193370       -0.0086486360
          -0.0399761642       -0.2248417235       -0.4013741739
vibration 20
          -0.0018595827        0.0406629318       -0.0134211044
          -0.0035548074        0.0129384291       -0.0078484052
          -0.0291415891       -0.0042562079       -0.0257626322
           0.5202219596       -0.5756605305        0.6244911297
           0.0120186952       -0.0063946648        0.0036213244
           0.0025336854       -0.0015497702        0.0048987638
           0.0036903915        0.0068973445        0.0118948294
           0.0265419502        0.0156840187       -0.0280803496
          -0.0004739123       -0.0014991523        0.0005877641
          -0.0426502131       -0.0157726709        0.0118987908
vibration 21
          -0.0151809924        0.0061880614        0.0037515982
           0.0007934831        0.0004617275        0.0002673308
           0.0021154738        0.0011028030       -0.0003496017
          -0.0115596775       -0.0058218341       -0.0075167377
           0.0211751152       -0.3763307440        0.0745203500
           0.0288861819       -0.0103581763       -0.0387279045
          -0.0387280587        0.4224960161        0.6606193884
          -0.3463776027        0.0734790502       -0.2631989106
           0.0000179135        0.0001731381        0.0000936267
           0.1657999376       -0.0922636867       -0.0484264517
vibration 22
          -0.0717670327        0.0411806739        0.0183799379
           0.0015769271       -0.0000609990       -0.0003079206
           0.0007848416       -0.0001689673        0.0000457694
          -0.0053684512       -0.0179031981        0.0109344036
          -0.0015049373        0.0958351078       -0.0217441782
          -0.0060232502        0.0008350057        0.0082204099
           0.0080950911       -0.0839316190       -0.1345559103
           0.0704517967       -0.0133605299        0.0531362798
           0.0000351894       -0.0000184465        0.0007993237
           0.8164157364       -0.4769157951       -0.2354038163
vibration 23
           0.0008399956       -0.0001412893       -0.0003777139
           0.0001701501        0.0001617387        0.0001345012
          -0.0000958554       -0.0001887745        0.0003837367
           0.0034471982        0.0021356722       -0.0029256638
          -0.0341369540        0.4309232725       -0.1091648119
          -0.0401118387       -0.0512530869       -0.0648959927
          -0.0303354859        0.3114648274        0.4810805133
           0.5362763934       -0.1356451180        0.3966286925
          -0.0000754919       -0.0000388031        0.0001165261
          -0.0074040634        0.0042259301        0.0011626783
vibration 24
           0.0014841176       -0.0006692839       -0.0005313747
          -0.0000848466        0.0000151853        0.0000152265
          -0.0003139949        0.0003360860       -0.0001850202
          -0.0024496669       -0.0011215847        0.0024645116
          -0.0437131273        0.7883379675       -0.1639442235
           0.0417826014       -0.0767156107        0.0378638232
           0.0050711102        0.0232570739        0.0628739135
          -0.4555042168        0.0941931107       -0.3457222664
          -0.0000021655        0.0000864745       -0.0000617663
          -0.0122027852        0.0095370628        0.0036760964
