
                                 *****************
                                 * O   R   C   A *
                                 *****************

           --- An Ab Initio, DFT and Semiempirical electronic structure package ---

                  #######################################################
                  #                        -***-                        #
                  #          Department of theory and spectroscopy      #
                  #               Directorship: Frank Neese             #
                  #        Max Planck Institute fuer Kohlenforschung    #
                  #                Kaiser Wilhelm Platz 1               #
                  #                 D-45470 Muelheim/Ruhr               #
                  #                      Germany                        #
                  #                                                     #
                  #                  All rights reserved                #
                  #                        -***-                        #
                  #######################################################


                         Program Version 4.1.1  - RELEASE  -


 With contributions from (in alphabetic order):
   Daniel Aravena         : Magnetic Properties
   Michael Atanasov       : Ab Initio Ligand Field Theory
   Alexander A. Auer      : GIAO ZORA
   Ute Becker             : Parallelization
   Giovanni Bistoni       : ED, Open-shell LED
   Martin Brehm           : Molecular dynamics
   Dmytro Bykov           : SCF Hessian
   Vijay G. Chilkuri      : MRCI spin determinant printing
   Dipayan Datta          : RHF DLPNO-CCSD density
   Achintya Kumar Dutta   : EOM-CC, STEOM-CC
   Dmitry Ganyushin       : Spin-Orbit,Spin-Spin,Magnetic field MRCI
   Miquel Garcia          : C-PCM Hessian
   Yang Guo               : DLPNO-NEVPT2, CIM, IAO-localization
   Andreas Hansen         : Spin unrestricted coupled pair/coupled cluster methods
   Benjamin Helmich-Paris : CASSCF linear response (MC-RPA)
   Lee Huntington         : MR-EOM, pCC
   Robert Izsak           : Overlap fitted RIJCOSX, COSX-SCS-MP3, EOM
   Christian Kollmar      : KDIIS, OOCD, Brueckner-CCSD(T), CCSD density
   Simone Kossmann        : Meta GGA functionals, TD-DFT gradient, OOMP2, MP2 Hessian
   Martin Krupicka        : AUTO-CI
   Lucas Lang             : DCDCAS
   Dagmar Lenk            : GEPOL surface, SMD
   Dimitrios Liakos       : Extrapolation schemes; parallel MDCI
   Dimitrios Manganas     : ROCIS; embedding schemes
   Dimitrios Pantazis     : SARC Basis sets
   Taras Petrenko         : DFT Hessian,TD-DFT gradient, ASA, ECA, R-Raman, ABS, FL, XAS/XES, NRVS
   Peter Pinski           : DLPNO-MP2, DLPNO-MP2 Gradient
   Christoph Reimann      : Effective Core Potentials
   Marius Retegan         : Local ZFS, SOC
   Christoph Riplinger    : Optimizer, TS searches, QM/MM, DLPNO-CCSD(T), (RO)-DLPNO pert. Triples
   Tobias Risthaus        : Range-separated hybrids, TD-DFT gradient, RPA, STAB
   Michael Roemelt        : Restricted open shell CIS
   Masaaki Saitow         : Open-shell DLPNO
   Barbara Sandhoefer     : DKH picture change effects
   Avijit Sen             : IP-ROCIS
   Kantharuban Sivalingam : CASSCF convergence, NEVPT2, FIC-MRCI
   Bernardo de Souza      : ESD, SOC TD-DFT
   Georgi Stoychev        : AutoAux, RI-MP2 NMR
   Willem Van den Heuvel  : Paramagnetic NMR
   Boris Wezisla          : Elementary symmetry handling
   Frank Wennmohs         : Technical directorship


 We gratefully acknowledge several colleagues who have allowed us to
 interface, adapt or use parts of their codes:
   Stefan Grimme, W. Hujo, H. Kruse,             : VdW corrections, initial TS optimization,
                  C. Bannwarth                     DFT functionals, gCP, sTDA/sTD-DF
   Ed Valeev                                     : LibInt (2-el integral package), F12 methods
   Garnet Chan, S. Sharma, J. Yang, R. Olivares  : DMRG
   Ulf Ekstrom                                   : XCFun DFT Library
   Mihaly Kallay                                 : mrcc  (arbitrary order and MRCC methods)
   Andreas Klamt, Michael Diedenhofen            : otool_cosmo (COSMO solvation model)
   Jiri Pittner, Ondrej Demel                    : Mk-CCSD
   Frank Weinhold                                : gennbo (NPA and NBO analysis)
   Christopher J. Cramer and Donald G. Truhlar   : smd solvation model
   Lars Goerigk                                  : TD-DFT with DH, B97 family of functionals
   V. Asgeirsson, H. Jonsson                     : NEB implementation
   FAccTs GmbH                                   : IRC, NEB, NEB-TS, Multilevel


 Your calculation uses the libint2 library for the computation of 2-el integrals
 For citations please refer to: http://libint.valeyev.net

 This ORCA versions uses:
   CBLAS   interface :  Fast vector & matrix operations
   LAPACKE interface :  Fast linear algebra routines
   SCALAPACK package :  Parallel linear algebra routines


----- Orbital basis set information -----
Your calculation utilizes the basis: 3-21G
   H-Ne       : J. S. Binkley, J. A. Pople and W. J. Hehre, J. Am. Chem. Soc. 102 939 (1980).
   Na-Ar      : M. S. Gordon, J. S. Binkley, J. A. Pople, W. J. Pietro and W.J. Hehre, J. Am. Chem. Soc. 104, 2797 (1983).
   K-Ca, Ga-Kr: K. D. Dobbs and W. J. Hehre, J. Comput. Chem. 7, 359 (1986).
   Sc-Zn      : K. D. Dobbs and W. J. Hehre, J. Comput. Chem. 8, 861 (1987).
   Y-Cd       : K. D. Dobbs and W. J. Hehre, J. Comput. Chem. 8, 880 (1987).

================================================================================
                                        WARNINGS
                       Please study these warnings very carefully!
================================================================================

WARNING: SinglePoint found together with IRC
         Switching on EnGrad - energy plus gradient calculation

INFO   : the flag for use of LIBINT has been found!

================================================================================
                                       INPUT FILE
================================================================================
NAME = input.dat
|  1> !UKS B3LYP 3-21G TightSCF KDIIS SOSCF Freq IRC
|  2> 
|  3> %irc
|  4>   MaxIter 10000000
|  5>   Scale_Init_Displ 0.01
|  6>   Scale_Displ_SD 0.01
|  7> end
|  8> 
|  9> *xyz 0 1
| 10>     C            0.230223016669    -0.361073813614     0.034916906978
| 11>     O           -1.152258456006    -0.154071239465     0.075175394608
| 12>     O            1.048229023912     0.530856179754    -0.061057027549
| 13>     H            0.493185194724    -1.419201899633     0.174977883284
| 14>     H           -1.583388633620    -0.261404487986    -0.814796243518
| 15> *
| 16> 
| 17>                          ****END OF INPUT****
================================================================================

                     *******************************
                     * Energy+Gradient Calculation *
                     *******************************

---------------------------------
CARTESIAN COORDINATES (ANGSTROEM)
---------------------------------
  C      0.230223   -0.361074    0.034917
  O     -1.152258   -0.154071    0.075175
  O      1.048229    0.530856   -0.061057
  H      0.493185   -1.419202    0.174978
  H     -1.583389   -0.261404   -0.814796

----------------------------
CARTESIAN COORDINATES (A.U.)
----------------------------
  NO LB      ZA    FRAG     MASS         X           Y           Z
   0 C     6.0000    0    12.011    0.435058   -0.682331    0.065983
   1 O     8.0000    0    15.999   -2.177453   -0.291152    0.142061
   2 O     8.0000    0    15.999    1.980866    1.003173   -0.115381
   3 H     1.0000    0     1.008    0.931985   -2.681903    0.330660
   4 H     1.0000    0     1.008   -2.992171   -0.493983   -1.539742

--------------------------------
INTERNAL COORDINATES (ANGSTROEM)
--------------------------------
 C      0   0   0     0.000000000000     0.00000000     0.00000000
 O      1   0   0     1.398472678968     0.00000000     0.00000000
 O      1   2   0     1.214036217361   124.02908428     0.00000000
 H      1   2   3     1.099273046424   112.04233303   175.77836478
 H      2   1   3     0.994707581632   112.75177591    96.32197900

---------------------------
INTERNAL COORDINATES (A.U.)
---------------------------
 C      0   0   0     0.000000000000     0.00000000     0.00000000
 O      1   0   0     2.642730369021     0.00000000     0.00000000
 O      1   2   0     2.294195967474   124.02908428     0.00000000
 H      1   2   3     2.077325004142   112.04233303   175.77836478
 H      2   1   3     1.879724912620   112.75177591    96.32197900

---------------------
BASIS SET INFORMATION
---------------------
There are 3 groups of distinct atoms

 Group   1 Type C   : 6s3p contracted to 3s2p pattern {321/21}
 Group   2 Type O   : 6s3p contracted to 3s2p pattern {321/21}
 Group   3 Type H   : 3s contracted to 2s pattern {21}

Atom   0C    basis set group =>   1
Atom   1O    basis set group =>   2
Atom   2O    basis set group =>   2
Atom   3H    basis set group =>   3
Atom   4H    basis set group =>   3
------------------------------------------------------------------------------
                           ORCA GTO INTEGRAL CALCULATION
------------------------------------------------------------------------------

                         BASIS SET STATISTICS AND STARTUP INFO

 # of primitive gaussian shells          ...   33
 # of primitive gaussian functions       ...   51
 # of contracted shells                  ...   19
 # of contracted basis functions         ...   31
 Highest angular momentum                ...    1
 Maximum contraction depth               ...    3
 Integral package used                   ... LIBINT
 Integral threshhold            Thresh   ...  2.500e-11
 Primitive cut-off              TCut     ...  2.500e-12


------------------------------ INTEGRAL EVALUATION ----------------------------


 * One electron integrals 
 Pre-screening matrix                    ... done
 Shell pair data                         ... done (   0.000 sec)

-------------------------------------------------------------------------------
                                 ORCA SCF
-------------------------------------------------------------------------------

------------
SCF SETTINGS
------------
Hamiltonian:
 Density Functional     Method          .... DFT(GTOs)
 Exchange Functional    Exchange        .... B88
   X-Alpha parameter    XAlpha          ....  0.666667
   Becke's b parameter  XBeta           ....  0.004200
 Correlation Functional Correlation     .... LYP
 LDA part of GGA corr.  LDAOpt          .... VWN-5
 Gradients option       PostSCFGGA      .... off
 Hybrid DFT is turned on
   Fraction HF Exchange ScalHFX         ....  0.200000
   Scaling of DF-GGA-X  ScalDFX         ....  0.720000
   Scaling of DF-GGA-C  ScalDFC         ....  0.810000
   Scaling of DF-LDA-C  ScalLDAC        ....  1.000000
   Perturbative correction              ....  0.000000
   Density functional embedding theory  .... OFF
   NL short-range parameter             ....  4.800000


General Settings:
 Integral files         IntName         .... input
 Hartree-Fock type      HFTyp           .... UHF
 Total Charge           Charge          ....    0
 Multiplicity           Mult            ....    1
 Number of Electrons    NEL             ....   24
 Basis Dimension        Dim             ....   31
 Nuclear Repulsion      ENuc            ....     68.2850937938 Eh

Convergence Acceleration:
 DIIS                   CNVDIIS         .... on
   Start iteration      DIISMaxIt       ....     0
   Startup error        DIISStart       ....  1.000000
   # of expansion vecs  DIISMaxEq       ....     5
   Bias factor          DIISBfac        ....   1.050
   Max. coefficient     DIISMaxC        ....  10.000
 Newton-Raphson         CNVNR           .... off
 SOSCF                  CNVSOSCF        .... on
   Start iteration      SOSCFMaxIt      ....   150
   Startup grad/error   SOSCFStart      ....  0.003300
 Level Shifting         CNVShift        .... off
 Zerner damping         CNVZerner       .... off
 Static damping         CNVDamp         .... off
 Fernandez-Rico         CNVRico         .... off

SCF Procedure:
 Maximum # iterations   MaxIter         ....   125
 SCF integral mode      SCFMode         .... Direct
   Integral package                     .... LIBINT
 Reset frequency        DirectResetFreq ....    20
 Integral Threshold     Thresh          ....  2.500e-11 Eh
 Primitive CutOff       TCut            ....  2.500e-12 Eh

Convergence Tolerance:
 Convergence Check Mode ConvCheckMode   .... Total+1el-Energy
 Convergence forced     ConvForced      .... 0
 Energy Change          TolE            ....  1.000e-08 Eh
 1-El. energy change                    ....  1.000e-05 Eh
 Orbital Gradient       TolG            ....  1.000e-05
 Orbital Rotation angle TolX            ....  1.000e-05
 DIIS Error             TolErr          ....  5.000e-07


Diagonalization of the overlap matrix:
Smallest eigenvalue                        ... 4.123e-02
Time for diagonalization                   ...    0.001 sec
Threshold for overlap eigenvalues          ... 1.000e-08
Number of eigenvalues below threshold      ... 0
Time for construction of square roots      ...    0.000 sec
Total time needed                          ...    0.001 sec

-------------------
DFT GRID GENERATION
-------------------

General Integration Accuracy     IntAcc      ...  4.340
Radial Grid Type                 RadialGrid  ... Gauss-Chebyshev
Angular Grid (max. acc.)         AngularGrid ... Lebedev-110
Angular grid pruning method      GridPruning ... 3 (G Style)
Weight generation scheme         WeightScheme... Becke
Basis function cutoff            BFCut       ...    1.0000e-11
Integration weight cutoff        WCut        ...    1.0000e-14
Grids for H and He will be reduced by one unit

# of grid points (after initial pruning)     ...   6676 (   0.0 sec)
# of grid points (after weights+screening)   ...   6545 (   0.0 sec)
nearest neighbour list constructed           ...    0.0 sec
Grid point re-assignment to atoms done       ...    0.0 sec
Grid point division into batches done        ...    0.0 sec
Reduced shell lists constructed in    0.0 sec

Total number of grid points                  ...     6545
Total number of batches                      ...      104
Average number of points per batch           ...       62
Average number of grid points per atom       ...     1309
Average number of shells per batch           ...    14.98 (78.85%)
Average number of basis functions per batch  ...    25.42 (82.00%)
Average number of large shells per batch     ...    12.92 (86.27%)
Average number of large basis fcns per batch ...    22.28 (87.64%)
Maximum spatial batch extension              ...  19.37, 25.60, 22.48 au
Average spatial batch extension              ...   4.82,  4.84,  5.01 au

Time for grid setup =    0.038 sec

------------------------------
INITIAL GUESS: MODEL POTENTIAL
------------------------------
Loading Hartree-Fock densities                     ... done
Calculating cut-offs                               ... done
Setting up the integral package                    ... done
Initializing the effective Hamiltonian             ... done
Starting the Coulomb interaction                   ... done (   0.0 sec)
Reading the grid                                   ... done
Mapping shells                                     ... done
Starting the XC term evaluation                    ... done (   0.0 sec)
  promolecular density results
     # of electrons  =     23.996909171
     EX              =    -22.083650441
     EC              =     -0.837017915
     EX+EC           =    -22.920668356
Transforming the Hamiltonian                       ... done (   0.0 sec)
Diagonalizing the Hamiltonian                      ... done (   0.0 sec)
Back transforming the eigenvectors                 ... done (   0.0 sec)
Now organizing SCF variables                       ... done
                      ------------------
                      INITIAL GUESS DONE (   0.2 sec)
                      ------------------
--------------
SCF ITERATIONS
--------------
ITER       Energy         Delta-E        Max-DP      RMS-DP      [F,P]   Gradient Norm
               ***  Starting incremental Fock matrix formation  ***
                             ****Resetting KDIIS****
                             ****Turning on KDIIS(Cayley)****
  0   -188.4533478001   0.000000000000 0.01451410  0.00197910  0.1206843   0.122176187
  1   -188.5117780524  -0.058430252296 0.02437194  0.00210770  0.0881065   0.089762390
  2   -188.5544190621  -0.042641009675 0.02225362  0.00235815  0.0590536   0.059782183
  3   -188.5754921447  -0.021073082619 0.01898118  0.00206001  0.0333299   0.032023148
  4   -188.5810947805  -0.005602635783 0.00397473  0.00041139  0.0222492   0.008452495
  5   -188.5820614665  -0.000966686035 0.01485300  0.00185019  0.0166522   0.007372644
  6   -188.5843143585  -0.002252892048 0.00586150  0.00052618  0.0114906   0.005816248
                      *** Initiating the SOSCF procedure ***
                           *** Shutting down KDIIS ***
                      *** Re-Reading the Fockian *** 
                      *** Removing any level shift *** 
ITER      Energy       Delta-E        Grad      Rot      Max-DP    RMS-DP
  7   -188.58474064  -0.0004262782  0.001695  0.001695  0.000997  0.000127
               *** Restarting incremental Fock matrix formation ***
  8   -188.58477032  -0.0000296792  0.000247  0.000453  0.000515  0.000048
  9   -188.58477000   0.0000003150  0.000427  0.000528  0.000223  0.000025
 10   -188.58477107  -0.0000010676  0.000208  0.000282  0.000271  0.000025
 11   -188.58477105   0.0000000190  0.000151  0.000128  0.000165  0.000014
 12   -188.58477131  -0.0000002614  0.000010  0.000016  0.000013  0.000002
 13   -188.58477131   0.0000000012  0.000017  0.000012  0.000008  0.000001
                 **** Energy Check signals convergence ****
              ***Rediagonalizing the Fockian in SOSCF/NRSCF***

               *****************************************************
               *                     SUCCESS                       *
               *           SCF CONVERGED AFTER  14 CYCLES          *
               *****************************************************

Setting up the final grid:

General Integration Accuracy     IntAcc      ...  4.670
Radial Grid Type                 RadialGrid  ... Gauss-Chebyshev
Angular Grid (max. acc.)         AngularGrid ... Lebedev-302
Angular grid pruning method      GridPruning ... 3 (G Style)
Weight generation scheme         WeightScheme... Becke
Basis function cutoff            BFCut       ...    1.0000e-11
Integration weight cutoff        WCut        ...    1.0000e-14
Grids for H and He will be reduced by one unit

# of grid points (after initial pruning)     ...  25424 (   0.0 sec)
# of grid points (after weights+screening)   ...  24818 (   0.0 sec)
nearest neighbour list constructed           ...    0.0 sec
Grid point re-assignment to atoms done       ...    0.0 sec
Grid point division into batches done        ...    0.1 sec
Reduced shell lists constructed in    0.1 sec

Total number of grid points                  ...    24818
Total number of batches                      ...      391
Average number of points per batch           ...       63
Average number of grid points per atom       ...     4964
Average number of shells per batch           ...    13.44 (70.73%)
Average number of basis functions per batch  ...    22.90 (73.86%)
Average number of large shells per batch     ...    11.49 (85.50%)
Average number of large basis fcns per batch ...    19.77 (86.32%)
Maximum spatial batch extension              ...  17.74, 16.88, 19.05 au
Average spatial batch extension              ...   3.18,  3.18,  3.29 au

Final grid set up in    0.1 sec
Final integration                            ... done (   0.1 sec)
Change in XC energy                          ...    -0.000209382
Integrated number of electrons               ...    24.000025599
Previous integrated no of electrons          ...    23.998952254

----------------
TOTAL SCF ENERGY
----------------

Total Energy       :         -188.58498069 Eh           -5131.65821 eV

Components:
Nuclear Repulsion  :           68.28509379 Eh            1858.13187 eV
Electronic Energy  :         -256.87007449 Eh           -6989.79008 eV
One Electron Energy:         -393.34663367 Eh          -10703.50606 eV
Two Electron Energy:          136.47655918 Eh            3713.71598 eV

Virial components:
Potential Energy   :         -375.73007750 Eh          -10224.13519 eV
Kinetic Energy     :          187.14509681 Eh            5092.47698 eV
Virial Ratio       :            2.00769394


DFT components:
N(Alpha)           :       12.000012799381 electrons
N(Beta)            :       12.000012799381 electrons
N(Total)           :       24.000025598762 electrons
E(X)               :      -17.709580018579 Eh       
E(C)               :       -0.990150092170 Eh       
E(XC)              :      -18.699730110750 Eh       
DFET-embed. en.    :        0.000000000000 Eh       

---------------
SCF CONVERGENCE
---------------

  Last Energy change         ...   -2.3818e-09  Tolerance :   1.0000e-08
  Last MAX-Density change    ...    6.1428e-07  Tolerance :   1.0000e-07
  Last RMS-Density change    ...    7.3532e-08  Tolerance :   5.0000e-09
  Last Orbital Gradient      ...    7.2453e-07  Tolerance :   1.0000e-05
  Last Orbital Rotation      ...    8.4881e-07  Tolerance :   1.0000e-05

             **** THE GBW FILE WAS UPDATED (input.gbw) ****
             **** DENSITY FILE WAS UPDATED (input.scfp.tmp) ****
             **** ENERGY FILE WAS UPDATED (input.en.tmp) ****
----------------------
UHF SPIN CONTAMINATION
----------------------

Warning: in a DFT calculation there is little theoretical justification to 
         calculate <S**2> as in Hartree-Fock theory. We will do it anyways
         but you should keep in mind that the values have only limited relevance

Expectation value of <S**2>     :    -0.000000
Ideal value S*(S+1) for S=0.0   :     0.000000
Deviation                       :    -0.000000

----------------
ORBITAL ENERGIES
----------------
                 SPIN UP ORBITALS
  NO   OCC          E(Eh)            E(eV) 
   0   1.0000     -19.063113      -518.7337 
   1   1.0000     -19.053170      -518.4631 
   2   1.0000     -10.265462      -279.3374 
   3   1.0000      -1.096405       -29.8347 
   4   1.0000      -1.023127       -27.8407 
   5   1.0000      -0.634559       -17.2672 
   6   1.0000      -0.543799       -14.7975 
   7   1.0000      -0.452666       -12.3177 
   8   1.0000      -0.432305       -11.7636 
   9   1.0000      -0.348809        -9.4916 
  10   1.0000      -0.302122        -8.2212 
  11   1.0000      -0.277176        -7.5423 
  12   0.0000      -0.019572        -0.5326 
  13   0.0000       0.078462         2.1351 
  14   0.0000       0.150835         4.1044 
  15   0.0000       0.282217         7.6795 
  16   0.0000       0.336115         9.1462 
  17   0.0000       0.678875        18.4731 
  18   0.0000       0.721533        19.6339 
  19   0.0000       0.804814        21.9001 
  20   0.0000       0.885506        24.0959 
  21   0.0000       0.956161        26.0185 
  22   0.0000       1.239226        33.7211 
  23   0.0000       1.465620        39.8815 
  24   0.0000       1.523132        41.4465 
  25   0.0000       1.572110        42.7793 
  26   0.0000       1.586940        43.1828 
  27   0.0000       1.642112        44.6841 
  28   0.0000       1.729446        47.0606 
  29   0.0000       2.918468        79.4156 
  30   0.0000       3.072404        83.6044 

                 SPIN DOWN ORBITALS
  NO   OCC          E(Eh)            E(eV) 
   0   1.0000     -19.063113      -518.7337 
   1   1.0000     -19.053170      -518.4631 
   2   1.0000     -10.265462      -279.3374 
   3   1.0000      -1.096405       -29.8347 
   4   1.0000      -1.023127       -27.8407 
   5   1.0000      -0.634559       -17.2672 
   6   1.0000      -0.543799       -14.7975 
   7   1.0000      -0.452666       -12.3177 
   8   1.0000      -0.432305       -11.7636 
   9   1.0000      -0.348809        -9.4916 
  10   1.0000      -0.302122        -8.2212 
  11   1.0000      -0.277176        -7.5423 
  12   0.0000      -0.019572        -0.5326 
  13   0.0000       0.078462         2.1351 
  14   0.0000       0.150835         4.1044 
  15   0.0000       0.282217         7.6795 
  16   0.0000       0.336115         9.1462 
  17   0.0000       0.678875        18.4731 
  18   0.0000       0.721533        19.6339 
  19   0.0000       0.804814        21.9001 
  20   0.0000       0.885506        24.0959 
  21   0.0000       0.956161        26.0185 
  22   0.0000       1.239226        33.7211 
  23   0.0000       1.465620        39.8815 
  24   0.0000       1.523132        41.4465 
  25   0.0000       1.572110        42.7793 
  26   0.0000       1.586940        43.1828 
  27   0.0000       1.642112        44.6841 
  28   0.0000       1.729446        47.0606 
  29   0.0000       2.918468        79.4156 
  30   0.0000       3.072404        83.6044 

                    ********************************
                    * MULLIKEN POPULATION ANALYSIS *
                    ********************************

--------------------------------------------
MULLIKEN ATOMIC CHARGES AND SPIN POPULATIONS
--------------------------------------------
   0 C :    0.411680    0.000000
   1 O :   -0.563480    0.000000
   2 O :   -0.396414    0.000000
   3 H :    0.174406    0.000000
   4 H :    0.373808    0.000000
Sum of atomic charges         :   -0.0000000
Sum of atomic spin populations:    0.0000000

-----------------------------------------------------
MULLIKEN REDUCED ORBITAL CHARGES AND SPIN POPULATIONS
-----------------------------------------------------
CHARGE
  0 C s       :     3.083157  s :     3.083157
      pz      :     0.863440  p :     2.505163
      px      :     0.689729
      py      :     0.951994
  1 O s       :     3.892509  s :     3.892509
      pz      :     1.455391  p :     4.670970
      px      :     1.336051
      py      :     1.879528
  2 O s       :     3.960039  s :     3.960039
      pz      :     1.267236  p :     4.436375
      px      :     1.602978
      py      :     1.566161
  3 H s       :     0.825594  s :     0.825594
  4 H s       :     0.626192  s :     0.626192

SPIN
  0 C s       :     0.000000  s :     0.000000
      pz      :     0.000000  p :     0.000000
      px      :     0.000000
      py      :     0.000000
  1 O s       :     0.000000  s :     0.000000
      pz      :     0.000000  p :     0.000000
      px      :     0.000000
      py      :     0.000000
  2 O s       :     0.000000  s :     0.000000
      pz      :     0.000000  p :     0.000000
      px      :     0.000000
      py      :     0.000000
  3 H s       :     0.000000  s :     0.000000
  4 H s       :     0.000000  s :     0.000000


                     *******************************
                     * LOEWDIN POPULATION ANALYSIS *
                     *******************************

-------------------------------------------
LOEWDIN ATOMIC CHARGES AND SPIN POPULATIONS
-------------------------------------------
   0 C :    0.174784    0.000000
   1 O :   -0.319591    0.000000
   2 O :   -0.164174    0.000000
   3 H :    0.044270    0.000000
   4 H :    0.264712    0.000000

----------------------------------------------------
LOEWDIN REDUCED ORBITAL CHARGES AND SPIN POPULATIONS
----------------------------------------------------
CHARGE
  0 C s       :     2.986293  s :     2.986293
      pz      :     0.867949  p :     2.838924
      px      :     0.909060
      py      :     1.061915
  1 O s       :     3.586016  s :     3.586016
      pz      :     1.455624  p :     4.733575
      px      :     1.374594
      py      :     1.903356
  2 O s       :     3.633617  s :     3.633617
      pz      :     1.267957  p :     4.530557
      px      :     1.642384
      py      :     1.620216
  3 H s       :     0.955730  s :     0.955730
  4 H s       :     0.735288  s :     0.735288

SPIN
  0 C s       :     0.000000  s :     0.000000
      pz      :     0.000000  p :     0.000000
      px      :     0.000000
      py      :     0.000000
  1 O s       :     0.000000  s :     0.000000
      pz      :     0.000000  p :     0.000000
      px      :     0.000000
      py      :     0.000000
  2 O s       :     0.000000  s :     0.000000
      pz      :     0.000000  p :     0.000000
      px      :     0.000000
      py      :     0.000000
  3 H s       :     0.000000  s :     0.000000
  4 H s       :     0.000000  s :     0.000000


                      *****************************
                      * MAYER POPULATION ANALYSIS *
                      *****************************

  NA   - Mulliken gross atomic population
  ZA   - Total nuclear charge
  QA   - Mulliken gross atomic charge
  VA   - Mayer's total valence
  BVA  - Mayer's bonded valence
  FA   - Mayer's free valence

  ATOM       NA         ZA         QA         VA         BVA        FA
  0 C      5.5883     6.0000     0.4117     3.7369     3.7369    -0.0000
  1 O      8.5635     8.0000    -0.5635     1.9028     1.9028     0.0000
  2 O      8.3964     8.0000    -0.3964     2.1099     2.1099    -0.0000
  3 H      0.8256     1.0000     0.1744     0.9063     0.9063     0.0000
  4 H      0.6262     1.0000     0.3738     0.8362     0.8362    -0.0000

  Mayer bond orders larger than 0.1
B(  0-C ,  1-O ) :   0.9726 B(  0-C ,  2-O ) :   1.9342 B(  0-C ,  3-H ) :   0.8148 
B(  1-O ,  4-H ) :   0.7931 

-------
TIMINGS
-------

Total SCF time: 0 days 0 hours 0 min 2 sec 

Total time                  ....       2.459 sec
Sum of individual times     ....       2.270 sec  ( 92.3%)

Fock matrix formation       ....       1.963 sec  ( 79.8%)
  XC integration            ....       0.355 sec  ( 18.1% of F)
    Basis function eval.    ....       0.113 sec  ( 31.9% of XC)
    Density eval.           ....       0.079 sec  ( 22.3% of XC)
    XC-Functional eval.     ....       0.079 sec  ( 22.2% of XC)
    XC-Potential eval.      ....       0.064 sec  ( 18.0% of XC)
Diagonalization             ....       0.002 sec  (  0.1%)
Density matrix formation    ....       0.000 sec  (  0.0%)
Population analysis         ....       0.001 sec  (  0.0%)
Initial guess               ....       0.124 sec  (  5.0%)
Orbital Transformation      ....       0.000 sec  (  0.0%)
Orbital Orthonormalization  ....       0.000 sec  (  0.0%)
DIIS solution               ....       0.000 sec  (  0.0%)
SOSCF solution              ....       0.001 sec  (  0.1%)
Grid generation             ....       0.178 sec  (  7.2%)

-------------------------   --------------------
FINAL SINGLE POINT ENERGY      -188.584980694622
-------------------------   --------------------

------------------------------------------------------------------------------
                         ORCA SCF GRADIENT CALCULATION
------------------------------------------------------------------------------

Gradient of the Kohn-Sham DFT energy:
Kohn-Sham wavefunction type      ... UKS
Hartree-Fock exchange scaling    ...    0.200
Number of operators              ...    2
Number of atoms                  ...    5
Basis set dimensions             ...   31
Integral neglect threshold       ... 2.5e-11
Integral primitive cutoff        ... 2.5e-12

Nuclear repulsion gradient       ... done
One Electron Gradient            ... done
Pre-screening matrix             ... done
Starting the two electron gradient:
Two electron gradient done
Exchange-correlation gradient    ... done

------------------
CARTESIAN GRADIENT
------------------

   1   C   :   -0.000543201    0.000094767    0.000184648
   2   O   :    0.000485232   -0.000058030   -0.000214027
   3   O   :   -0.000083047   -0.000164200   -0.000029554
   4   H   :    0.000044384    0.000156125   -0.000080180
   5   H   :    0.000096632   -0.000028661    0.000139114

Difference to translation invariance:
           :    0.0000000000    0.0000000000   -0.0000000000

Norm of the cartesian gradient     ...    0.0008484021
RMS gradient                       ...    0.0002190565
MAX gradient                       ...    0.0005432013

-------
TIMINGS
-------

Total SCF gradient time            ...        0.480 sec

One electron gradient       ....       0.002 sec  (  0.4%)
Prescreening matrices       ....       0.001 sec  (  0.1%)
Two electron gradient       ....       0.034 sec  (  7.0%)
XC gradient                 ....       0.315 sec  ( 65.5%)

                            ***************************************
                            *     ORCA property calculations      *
                            ***************************************

                                    ---------------------
                                    Active property flags
                                    ---------------------
   (+) Dipole Moment


------------------------------------------------------------------------------
                       ORCA ELECTRIC PROPERTIES CALCULATION
------------------------------------------------------------------------------

Dipole Moment Calculation                       ... on
Quadrupole Moment Calculation                   ... off
Polarizability Calculation                      ... off
GBWName                                         ... input.gbw
Electron density file                           ... input.scfp.tmp
The origin for moment calculation is the CENTER OF MASS  = ( 0.000079, -0.000112  0.000014)

-------------
DIPOLE MOMENT
-------------
                                X             Y             Z
Electronic contribution:      0.50944       0.77541      -0.02473
Nuclear contribution   :     -1.02442      -1.57102      -0.60007
                        -----------------------------------------
Total Dipole Moment    :     -0.51498      -0.79561      -0.62480
                        -----------------------------------------
Magnitude (a.u.)       :      1.13515
Magnitude (Debye)      :      2.88533



--------------------
Rotational spectrum 
--------------------
 
Rotational constants in cm-1:     2.631222     0.366454     0.331268 
Rotational constants in MHz : 78882.042796 10986.025261  9931.159630 

 Dipole components along the rotational axes: 
x,y,z [a.u.] :    -0.697496     0.538834    -0.715355 
x,y,z [Debye]:    -1.772893     1.369607    -1.818287 

 

-------------------------------------------------------------------------------
                               ORCA SCF HESSIAN
-------------------------------------------------------------------------------

Hessian of the Kohn-Sham DFT energy:
Kohn-Sham wavefunction type                      ... UKS
Hartree-Fock exchange scaling                    ...    0.200
Number of operators                              ...    2
Number of atoms                                  ...    5
Basis set dimensions                             ...   31
Integral neglect threshold                       ... 2.5e-11
Integral primitive cutoff                        ... 2.5e-12

Setting up DFT Hessian calculations              ... 
Electron density on the grid                     ... found on disk
Electron density on the final grid               ... found on disk
Building xc-kernel on the grid                   ... done   (      0.0 sec)
Building xc-kernel on the final grid             ... done   (      0.0 sec)
                                                     done   (      0.1 sec)

Nuclear repulsion Hessian                        ... done   (      0.0 sec)

----------------------------------------------
Forming right-hand sides of CP-SCF equations     ...
----------------------------------------------
One electron integral derivatives                ... done   (      0.1 sec)
Transforming the overlap derivative matrices     ... done   (      0.0 sec)
Making the Q(x) pseudodensities                  ... done   (      0.0 sec)
Adding the E*S(x)*S(y) terms to the Hessian      ... done   (      0.0 sec)
Calculating energy weighted overlap derivatives  ... done   (      0.0 sec)
Two electron integral derivatives                ... done   (      0.1 sec)
Exchange-correlation integral derivatives        ... done   (      1.3 sec)
tr(F(y)Q(x)) contribution to the Hessian         ... done   (      0.0 sec)
Response fock operator R(S(x))                   ... done   (      0.1 sec)
XC Response fock operator R(S(x))                ... done   (      0.4 sec)
tr(F(y)S(x)) contribution to the Hessian         ... done   (      0.0 sec)
Transforming and finalizing RHSs                 ... done   (      0.0 sec)

----------------------------------------------
Solving the CP-SCF equations                     ...
----------------------------------------------
     CP-SCF ITERATION   0: 
     CP-SCF ITERATION   1:      0.006794661192
     CP-SCF ITERATION   2:      0.000478302716
     CP-SCF ITERATION   3:      0.000029090653
     CP-SCF ITERATION   4:      0.000001815518
     CP-SCF ITERATION   5:      0.000000039266
     CP-SCF ITERATION   6:      0.000000008589

                                                 ... done   (      2.1 sec)
Forming perturbed density Hessian contributions  ... done   (      0.0 sec)
Making the perturbed densities                   ... done   (      0.0 sec)
2nd integral derivative contribs                 ... done   (      0.4 sec)
Exchange-correlation Hessian                     ... done   (      2.6 sec)
Dipol derivatives                                ... done   (      0.1 sec)

Total SCF Hessian time: 0 days 0 hours 0 min 7 sec 

Writing the Hessian file to the disk             ... done


Maximum memory used throughout the entire calculation: 61.2 MB

-----------------------
VIBRATIONAL FREQUENCIES
-----------------------

Scaling factor for frequencies =  1.000000000  (already applied!)

   0:         0.00 cm**-1
   1:         0.00 cm**-1
   2:         0.00 cm**-1
   3:         0.00 cm**-1
   4:         0.00 cm**-1
   5:         0.00 cm**-1
   6:      -616.48 cm**-1 ***imaginary mode***
   7:       658.85 cm**-1
   8:       894.36 cm**-1
   9:      1043.44 cm**-1
  10:      1208.64 cm**-1
  11:      1444.56 cm**-1
  12:      1777.66 cm**-1
  13:      3003.83 cm**-1
  14:      3497.61 cm**-1


------------
NORMAL MODES
------------

These modes are the Cartesian displacements weighted by the diagonal matrix
M(i,i)=1/sqrt(m[i]) where m[i] is the mass of the displaced atom
Thus, these vectors are normalized but *not* orthogonal

                  0          1          2          3          4          5    
      0       0.000000   0.000000   0.000000   0.000000   0.000000   0.000000
      1       0.000000   0.000000   0.000000   0.000000   0.000000   0.000000
      2       0.000000   0.000000   0.000000   0.000000   0.000000   0.000000
      3       0.000000   0.000000   0.000000   0.000000   0.000000   0.000000
      4       0.000000   0.000000   0.000000   0.000000   0.000000   0.000000
      5       0.000000   0.000000   0.000000   0.000000   0.000000   0.000000
      6       0.000000   0.000000   0.000000   0.000000   0.000000   0.000000
      7       0.000000   0.000000   0.000000   0.000000   0.000000   0.000000
      8       0.000000   0.000000   0.000000   0.000000   0.000000   0.000000
      9       0.000000   0.000000   0.000000   0.000000   0.000000   0.000000
     10       0.000000   0.000000   0.000000   0.000000   0.000000   0.000000
     11       0.000000   0.000000   0.000000   0.000000   0.000000   0.000000
     12       0.000000   0.000000   0.000000   0.000000   0.000000   0.000000
     13       0.000000   0.000000   0.000000   0.000000   0.000000   0.000000
     14       0.000000   0.000000   0.000000   0.000000   0.000000   0.000000
                  6          7          8          9         10         11    
      0       0.003938   0.061291  -0.056043   0.294408  -0.096944  -0.050322
      1       0.010869  -0.388305   0.032339  -0.222039   0.060561   0.029472
      2       0.045509   0.053091  -0.085292  -0.183128  -0.176745  -0.010692
      3      -0.012990   0.416910   0.078003  -0.239997   0.061162  -0.009234
      4      -0.074194   0.245588  -0.030553   0.092007  -0.009962   0.020309
      5       0.000757  -0.047734  -0.031930   0.043661   0.076020  -0.000464
      6       0.002127  -0.485815   0.014800   0.007270  -0.022352  -0.013253
      7       0.004509   0.041062  -0.005804   0.080281  -0.032720  -0.062130
      8      -0.039265  -0.003407   0.038802   0.046037   0.038959   0.009039
      9      -0.003393   0.194348  -0.074206   0.276085  -0.177251   0.953751
     10       0.042547  -0.337480   0.107910  -0.082467   0.129822   0.285267
     11       0.255166   0.101947   0.519599   0.812268   0.535325   0.001063
     12       0.128886   0.168987  -0.730973  -0.090301   0.716405   0.002777
     13       0.933983   0.414678   0.083792  -0.006341  -0.174002   0.027345
     14      -0.186247   0.077151   0.387642  -0.053865  -0.254226  -0.009759
                  12         13         14    
      0      -0.504834  -0.014638  -0.001601
      1      -0.463981   0.083608   0.000876
      2       0.027096  -0.010701   0.002387
      3       0.024734  -0.000611   0.031382
      4       0.015441   0.000186   0.005625
      5       0.012187  -0.000021   0.053552
      6       0.318415  -0.003261  -0.000600
      7       0.353705  -0.002922  -0.000333
      8      -0.034564   0.000166  -0.000027
      9       0.390952   0.240922  -0.004270
     10      -0.317711  -0.958130   0.004463
     11       0.100663   0.128608  -0.000595
     12       0.178017  -0.005031  -0.465238
     13      -0.012742   0.005312  -0.098887
     14      -0.068358  -0.003394  -0.877407


-----------
IR SPECTRUM
-----------

 Mode    freq (cm**-1)   T**2         TX         TY         TZ
-------------------------------------------------------------------
   7:       658.85   10.782194  ( -0.314947  -3.221830   0.550284)
   8:       894.36  217.193664  (-14.616114   1.591035   1.015612)
   9:      1043.44  137.203849  ( 10.784502  -4.161788   1.891528)
  10:      1208.64    9.686147  (  1.958891   2.053167  -1.278045)
  11:      1444.56    6.885952  ( -1.764871   1.822176  -0.671460)
  12:      1777.66  173.737832  (-11.483374  -6.466189  -0.241547)
  13:      3003.83   96.467039  ( -3.876679   8.930110  -1.300587)
  14:      3497.61   30.303974  ( -3.941037   0.126172  -3.841391)

The first frequency considered to be a vibration is 7
The total number of vibrations considered is 8


--------------------------
THERMOCHEMISTRY AT 298.15K
--------------------------

Temperature         ... 298.15 K
Pressure            ... 1.00 atm
Total Mass          ... 46.03 AMU

Throughout the following assumptions are being made:
  (1) The electronic state is orbitally nondegenerate
  (2) There are no thermally accessible electronically excited states
  (3) Hindered rotations indicated by low frequency modes are not
      treated as such but are treated as vibrations and this may
      cause some error
  (4) All equations used are the standard statistical mechanics
      equations for an ideal gas
  (5) All vibrations are strictly harmonic

freq.     658.85  E(vib)   ...       0.08 
freq.     894.36  E(vib)   ...       0.03 
freq.    1043.44  E(vib)   ...       0.02 
freq.    1208.64  E(vib)   ...       0.01 
freq.    1444.56  E(vib)   ...       0.00 
freq.    1777.66  E(vib)   ...       0.00 
freq.    3003.83  E(vib)   ...       0.00 
freq.    3497.61  E(vib)   ...       0.00 

------------
INNER ENERGY
------------

The inner energy is: U= E(el) + E(ZPE) + E(vib) + E(rot) + E(trans)
    E(el)   - is the total energy from the electronic structure calculation
              = E(kin-el) + E(nuc-el) + E(el-el) + E(nuc-nuc)
    E(ZPE)  - the the zero temperature vibrational energy from the frequency calculation
    E(vib)  - the the finite temperature correction to E(ZPE) due to population
              of excited vibrational states
    E(rot)  - is the rotational thermal energy
    E(trans)- is the translational thermal energy

Summary of contributions to the inner energy U:
Electronic energy                ...   -188.58498069 Eh
Zero point energy                ...      0.03082122 Eh      19.34 kcal/mol
Thermal vibrational correction   ...      0.00024054 Eh       0.15 kcal/mol
Thermal rotational correction    ...      0.00141627 Eh       0.89 kcal/mol
Thermal translational correction ...      0.00141627 Eh       0.89 kcal/mol
-----------------------------------------------------------------------
Total thermal energy                   -188.55108638 Eh


Summary of corrections to the electronic energy:
(perhaps to be used in another calculation)
Total thermal correction                  0.00307309 Eh       1.93 kcal/mol
Non-thermal (ZPE) correction              0.03082122 Eh      19.34 kcal/mol
-----------------------------------------------------------------------
Total correction                          0.03389431 Eh      21.27 kcal/mol


--------
ENTHALPY
--------

The enthalpy is H = U + kB*T
                kB is Boltzmann's constant
Total free energy                 ...   -188.55108638 Eh 
Thermal Enthalpy correction       ...      0.00094421 Eh       0.59 kcal/mol
-----------------------------------------------------------------------
Total Enthalpy                    ...   -188.55014218 Eh


Note: Rotational entropy computed according to Herzberg 
Infrared and Raman Spectra, Chapter V,1, Van Nostrand Reinhold, 1945 
Point Group:  C1, Symmetry Number:   1  
Rotational constants in cm-1:     2.631222     0.366454     0.331268 

Vibrational entropy computed according to the QRRHO of S. Grimme
Chem.Eur.J. 2012 18 9955


-------
ENTROPY
-------

The entropy contributions are T*S = T*(S(el)+S(vib)+S(rot)+S(trans))
     S(el)   - electronic entropy
     S(vib)  - vibrational entropy
     S(rot)  - rotational entropy
     S(trans)- translational entropy
The entropies will be listed as mutliplied by the temperature to get
units of energy

Electronic entropy                ...      0.00000000 Eh      0.00 kcal/mol
Vibrational entropy               ...      0.00030359 Eh      0.19 kcal/mol
Rotational entropy                ...      0.01004959 Eh      6.31 kcal/mol
Translational entropy             ...      0.01777224 Eh     11.15 kcal/mol
-----------------------------------------------------------------------
Final entropy term                ...      0.02812541 Eh     17.65 kcal/mol


-------------------
GIBBS FREE ENTHALPY
-------------------

The Gibbs free enthalpy is G = H - T*S

Total enthalpy                    ...   -188.55014218 Eh 
Total entropy correction          ...     -0.02812541 Eh    -17.65 kcal/mol
-----------------------------------------------------------------------
Final Gibbs free enthalpy         ...   -188.57826759 Eh

For completeness - the Gibbs free enthalpy minus the electronic energy
G-E(el)                           ...      0.00671311 Eh      4.21 kcal/mol




------------------------------------------------------------------------------- 
                    Intrinsic Reaction Coordinate Calculation                  
------------------------------------------------------------------------------- 

System:
Nr. of atoms                        .... 5
Algorithm: SD (steepest descent step) plus correction
Settings:
Max. no of cycles        MaxIter    .... 10000000
Direction                           .... Forward and backward
Initial displacement Hessian type   .... Read
Hessian Filename                    .... input.hess
Following Hessian mode              .... 0
Initial displacement type           .... Length
Coordinate system following type    .... Cartesian
Length of steepest descent step     .... 0.010 bohr
Do parabolic fit 
  if SD step is uphill              .... YES
Do Correction to SD step            .... YES
Scaling for length of correction
  compared to SD step               .... 0.333
Do parabolic fit to SD correction   .... YES
Only interpolate for parabolic fit  .... YES
Do update to length of
  SD step and correction            .... YES
Convergence Tolerances:
  Max. Gradient            TolMAXG  ....  2.0000e-03 Eh/bohr
  RMS Gradient             TolRMSG  ....  5.0000e-04 Eh/bohr
Storing full IRC trajectory in      .... input_IRC_Full.trj
Storing forward trajectory in       .... input_IRC_F.trj
Storing backward trajectory in      .... input_IRC_B.trj


 ...good, the file input.hess exists
Reading the hessian file           ...... done

         *************************************************************
         *                          FORWARD IRC                      *
         *************************************************************

Iteration    E(Eh)      dE(kcal/mol)  max(|G|)   RMS(G) 
Convergence thresholds                0.002000  0.000500            
    0      -188.584982   -0.000876    0.000552  0.000228
    1      -188.584983   -0.000322    0.000444  0.000168

                      ***********************HURRAY********************
                      ***            THE IRC HAS CONVERGED          ***
                      *************************************************


         *************************************************************
         *                          BACKWARD IRC                     *
         *************************************************************

Iteration    E(Eh)      dE(kcal/mol)  max(|G|)   RMS(G) 
Convergence thresholds                0.002000  0.000500            
    0      -188.584981   -0.000144    0.000534  0.000228
    1      -188.584981   -0.000278    0.000432  0.000162

                      ***********************HURRAY********************
                      ***            THE IRC HAS CONVERGED          ***
                      *************************************************


---------------------------------------------------------------
                       IRC PATH SUMMARY              
---------------------------------------------------------------
All gradients are in Eh/Bohr.

Step       E(Eh)      dE(Eh)  max(|G|)   RMS(G)  
  1   -188.584981    -0.0000  0.000432  0.000162
  2   -188.584981    -0.0000  0.000534  0.000228
  3   -188.584981     0.0000  0.000543  0.000219 <= TS
  4   -188.584982    -0.0000  0.000552  0.000228
  5   -188.584983    -0.0000  0.000444  0.000168

Timings for individual modules:

Sum of individual times         ...       39.623 sec (=   0.660 min)
GTO integral calculation        ...        4.480 sec (=   0.075 min)  11.3 %
SCF iterations                  ...       23.946 sec (=   0.399 min)  60.4 %
SCF Gradient evaluation         ...        3.661 sec (=   0.061 min)   9.2 %
Analytical frequency calculation...        7.536 sec (=   0.126 min)  19.0 %
                             ****ORCA TERMINATED NORMALLY****
TOTAL RUN TIME: 0 days 0 hours 0 minutes 40 seconds 459 msec
