
    -----------------------------------------------------------------------
          Psi4: An Open-Source Ab Initio Electronic Structure Package
                               Psi4 1.2.1 release

                         Git: Rev {HEAD} 406f4de 


    R. M. Parrish, L. A. Burns, D. G. A. Smith, A. C. Simmonett,
    A. E. DePrince III, E. G. Hohenstein, U. Bozkaya, A. Yu. Sokolov,
    R. Di Remigio, R. M. Richard, J. F. Gonthier, A. M. James,
    H. R. McAlexander, A. Kumar, M. Saitow, X. Wang, B. P. Pritchard,
    P. Verma, H. F. Schaefer III, K. Patkowski, R. A. King, E. F. Valeev,
    F. A. Evangelista, J. M. Turney, T. D. Crawford, and C. D. Sherrill,
    J. Chem. Theory Comput. 13(7) pp 3185--3197 (2017).
    (doi: 10.1021/acs.jctc.7b00174)


                         Additional Contributions by
    P. Kraus, H. Kruse, M. H. Lechner, M. C. Schieber, and R. A. Shaw

    -----------------------------------------------------------------------


    Psi4 started on: Thursday, 17 January 2019 12:17PM

    Process ID: 10365
    Host:       localhost.localdomain
    PSIDATADIR: /root/psi4conda/share/psi4
    Memory:     500.0 MiB
    Threads:    1
    
  ==> Input File <==

--------------------------------------------------------------------------
molecule{
0 1
C     -0.438042   -0.749370    0.240485
O     -1.507633   -0.532039   -0.482282
O     -0.147300    0.882268    0.456711
H     -1.083671    0.700208   -0.228661
H      0.887008    2.545001   -0.158340
C      1.033221    1.465294   -0.115158
H      1.214003    1.075283   -1.122448
H      1.884810    1.243748    0.528996
F     -0.056127   -0.381635    2.051663
H     -0.125066   -1.698868   -0.140827 
}

set{
   basis 6-311++G(d,p)
   freeze_core True
   opt_type ts
}


set_num_threads(16)
optimize('m06-2x')
--------------------------------------------------------------------------
  Threads set to 16 by Python driver.
gradient() will perform analytic gradient computation.

*** tstart() called on localhost.localdomain
*** at Thu Jan 17 12:17:34 2019

   => Loading Basis Set <=

    Name: 6-311++G(D,P)
    Role: ORBITAL
    Keyword: BASIS
    atoms 1, 6         entry C          line   119 file /root/psi4conda/share/psi4/basis/6-311ppg_d_p_.gbs 
    atoms 2-3          entry O          line   161 file /root/psi4conda/share/psi4/basis/6-311ppg_d_p_.gbs 
    atoms 4-5, 7-8, 10 entry H          line    42 file /root/psi4conda/share/psi4/basis/6-311ppg_d_p_.gbs 
    atoms 9            entry F          line   182 file /root/psi4conda/share/psi4/basis/6-311ppg_d_p_.gbs 


         ---------------------------------------------------------
                                   SCF
            by Justin Turney, Rob Parrish, Andy Simmonett
                             and Daniel Smith
                              RKS Reference
                       16 Threads,    500 MiB Core
         ---------------------------------------------------------

  ==> Geometry <==

    Molecular point group: c1
    Full point group: C1

    Geometry (in Angstrom), charge = 0, multiplicity = 1:

       Center              X                  Y                   Z               Mass       
    ------------   -----------------  -----------------  -----------------  -----------------
         C           -0.218168782078    -0.884800361812    -0.246138401004    12.000000000000
         O           -1.287759782078    -0.667469361812    -0.968905401004    15.994914619560
         O            0.072573217922     0.746837638188    -0.029912401004    15.994914619560
         H           -0.863797782078     0.564777638188    -0.715284401004     1.007825032070
         H            1.106881217922     2.409570638188    -0.644963401004     1.007825032070
         C            1.253094217922     1.329863638188    -0.601781401004    12.000000000000
         H            1.433876217922     0.939852638188    -1.609071401004     1.007825032070
         H            2.104683217922     1.108317638188     0.042372598996     1.007825032070
         F            0.163746217922    -0.517065361812     1.565039598996    18.998403224000
         H            0.094807217922    -1.834298361812    -0.627450401004     1.007825032070

  Running in c1 symmetry.

  Rotational constants: A =      0.19053  B =      0.15090  C =      0.09472 [cm^-1]
  Rotational constants: A =   5712.05498  B =   4523.81966  C =   2839.70843 [MHz]
  Nuclear repulsion =  188.184982235659533

  Charge       = 0
  Multiplicity = 1
  Electrons    = 42
  Nalpha       = 21
  Nbeta        = 21

  ==> Algorithm <==

  SCF Algorithm Type is DF.
  DIIS enabled.
  MOM disabled.
  Fractional occupation disabled.
  Guess Type is SAD.
  Energy threshold   = 1.00e-08
  Density threshold  = 1.00e-08
  Integral threshold = 0.00e+00

  ==> Primary Basis <==

  Basis Set: 6-311++G(D,P)
    Blend: 6-311++G(D,P)
    Number of shells: 75
    Number of basis function: 145
    Number of Cartesian functions: 150
    Spherical Harmonics?: true
    Max angular momentum: 2

  ==> DFT Potential <==

   => Composite Functional: M06-2X <= 

    Hybrid M06-2X Meta-GGA XC Functional

    Y. Zhao and D. G. Truhlar,  Theor. Chem. Acc., 120, 215, 2008


    Deriv               =              1
    GGA                 =           TRUE
    Meta                =           TRUE

    Exchange Hybrid     =           TRUE
    MP2 Hybrid          =          FALSE

   => Exchange Functionals <=

    1.0000   XC_HYB_MGGA_X_M06_2X

   => Exact (HF) Exchange <=

    0.5400               HF 

   => Correlation Functionals <=

    1.0000   XC_MGGA_C_M06_2X

   => Molecular Quadrature <=

    Radial Scheme       =       TREUTLER
    Pruning Scheme      =           FLAT
    Nuclear Scheme      =       TREUTLER

    BS radius alpha     =              1
    Pruning alpha       =              1
    Radial Points       =             75
    Spherical Points    =            302
    Total Points        =         226500
    Total Blocks        =           1741
    Max Points          =            256
    Max Functions       =            143

   => Loading Basis Set <=

    Name: (6-311++G(D,P) AUX)
    Role: JKFIT
    Keyword: DF_BASIS_SCF
    atoms 1, 6         entry C          line   162 file /root/psi4conda/share/psi4/basis/aug-cc-pvtz-jkfit.gbs 
    atoms 2-3          entry O          line   286 file /root/psi4conda/share/psi4/basis/aug-cc-pvtz-jkfit.gbs 
    atoms 4-5, 7-8, 10 entry H          line    70 file /root/psi4conda/share/psi4/basis/aug-cc-pvtz-jkfit.gbs 
    atoms 9            entry F          line   348 file /root/psi4conda/share/psi4/basis/aug-cc-pvtz-jkfit.gbs 

  ==> Pre-Iterations <==

   -------------------------------------------------------
    Irrep   Nso     Nmo     Nalpha   Nbeta   Ndocc  Nsocc
   -------------------------------------------------------
     A        145     145       0       0       0       0
   -------------------------------------------------------
    Total     145     145      21      21      21       0
   -------------------------------------------------------

  ==> Integral Setup <==

  DFHelper Memory: AOs need 0.152 [GiB]; user supplied 0.366 [GiB]. Using in-core AOs.

  ==> MemDFJK: Density-Fitted J/K Matrices <==

    J tasked:                   Yes
    K tasked:                   Yes
    wK tasked:                   No
    OpenMP threads:              16
    Memory (MB):                375
    Algorithm:                 Core
    Schwarz Cutoff:           1E-12
    Mask sparsity (%):       2.4257
    Fitting Condition:        1E-12

   => Auxiliary Basis Set <=

  Basis Set: (6-311++G(D,P) AUX)
    Blend: AUG-CC-PVTZ-JKFIT
    Number of shells: 220
    Number of basis function: 750
    Number of Cartesian functions: 930
    Spherical Harmonics?: true
    Max angular momentum: 4

  Minimum eigenvalue in the overlap matrix is 6.2312830100E-04.
  Using Symmetric Orthogonalization.

  SCF Guess: Superposition of Atomic Densities via on-the-fly atomic UHF.

  ==> Iterations <==

                           Total Energy        Delta E     RMS |[F,P]|

   @DF-RKS iter   0:  -329.95275256482853   -3.29953e+02   9.20885e-02 
   @DF-RKS iter   1:  -329.09846157186848    8.54291e-01   1.65001e-02 
   @DF-RKS iter   2:  -328.78278790532295    3.15674e-01   2.27922e-02 DIIS
   @DF-RKS iter   3:  -329.25877025256955   -4.75982e-01   3.62379e-03 DIIS
   @DF-RKS iter   4:  -329.26268889482532   -3.91864e-03   2.38477e-03 DIIS
   @DF-RKS iter   5:  -329.26627957803998   -3.59068e-03   5.59878e-04 DIIS
   @DF-RKS iter   6:  -329.26651513256303   -2.35555e-04   2.72025e-04 DIIS
   @DF-RKS iter   7:  -329.26656659499042   -5.14624e-05   1.31621e-04 DIIS
   @DF-RKS iter   8:  -329.26657776205485   -1.11671e-05   3.32385e-05 DIIS
   @DF-RKS iter   9:  -329.26657887286757   -1.11081e-06   7.70310e-06 DIIS
   @DF-RKS iter  10:  -329.26657900053340   -1.27666e-07   2.76317e-06 DIIS
   @DF-RKS iter  11:  -329.26657902258285   -2.20494e-08   1.23134e-06 DIIS
   @DF-RKS iter  12:  -329.26657902641449   -3.83164e-09   5.23152e-07 DIIS
   @DF-RKS iter  13:  -329.26657902688828   -4.73790e-10   1.27432e-07 DIIS
   @DF-RKS iter  14:  -329.26657902692824   -3.99609e-11   5.35617e-08 DIIS
   @DF-RKS iter  15:  -329.26657902693216   -3.92220e-12   1.24512e-08 DIIS
   @DF-RKS iter  16:  -329.26657902693279   -6.25278e-13   2.67167e-09 DIIS

  ==> Post-Iterations <==

    Orbital Energies [Eh]
    ---------------------

    Doubly Occupied:                                                      

       1A    -25.133582     2A    -19.718150     3A    -19.683552  
       4A    -10.767984     5A    -10.624769     6A     -1.266668  
       7A     -1.185621     8A     -1.160322     9A     -0.835397  
      10A     -0.765043    11A     -0.670550    12A     -0.602758  
      13A     -0.579777    14A     -0.550431    15A     -0.516048  
      16A     -0.486810    17A     -0.475606    18A     -0.410021  
      19A     -0.404001    20A     -0.383739    21A     -0.363534  

    Virtual:                                                              

      22A     -0.033989    23A     -0.018247    24A     -0.012581  
      25A      0.009694    26A      0.015159    27A      0.027214  
      28A      0.046326    29A      0.067122    30A      0.069974  
      31A      0.088561    32A      0.092980    33A      0.108027  
      34A      0.120124    35A      0.125227    36A      0.138412  
      37A      0.174271    38A      0.182766    39A      0.184947  
      40A      0.198280    41A      0.218781    42A      0.219805  
      43A      0.245864    44A      0.257690    45A      0.279239  
      46A      0.280277    47A      0.307195    48A      0.311646  
      49A      0.335411    50A      0.345599    51A      0.369194  
      52A      0.385878    53A      0.403077    54A      0.425103  
      55A      0.456004    56A      0.477652    57A      0.486288  
      58A      0.518280    59A      0.580288    60A      0.588060  
      61A      0.597297    62A      0.647043    63A      0.661471  
      64A      0.672662    65A      0.689082    66A      0.713636  
      67A      0.881125    68A      0.964816    69A      1.017121  
      70A      1.024881    71A      1.055991    72A      1.099144  
      73A      1.113090    74A      1.147537    75A      1.159695  
      76A      1.246168    77A      1.306926    78A      1.317863  
      79A      1.383080    80A      1.428476    81A      1.455512  
      82A      1.488490    83A      1.506133    84A      1.546167  
      85A      1.564735    86A      1.587911    87A      1.607842  
      88A      1.662248    89A      1.684615    90A      1.715502  
      91A      1.718951    92A      1.735279    93A      1.784723  
      94A      1.802172    95A      1.881468    96A      1.999202  
      97A      2.025016    98A      2.050208    99A      2.102132  
     100A      2.162345   101A      2.214325   102A      2.420170  
     103A      2.434364   104A      2.506163   105A      2.525959  
     106A      2.545183   107A      2.566962   108A      2.612207  
     109A      2.671411   110A      2.738556   111A      2.854366  
     112A      2.862516   113A      2.947461   114A      2.963902  
     115A      3.058933   116A      3.114013   117A      3.151787  
     118A      3.245289   119A      3.333989   120A      3.500164  
     121A      3.674655   122A      3.749068   123A      3.807242  
     124A      3.855055   125A      3.966152   126A      3.986329  
     127A      4.001771   128A      4.024465   129A      4.069920  
     130A      4.103657   131A      4.169247   132A      5.089336  
     133A      5.157205   134A      5.242713   135A      5.287570  
     136A      5.573254   137A      5.609799   138A      6.565345  
     139A      6.609863   140A      6.663755   141A     23.724704  
     142A     23.952281   143A     49.939293   144A     49.954822  
     145A     67.006764  

    Final Occupation by Irrep:
              A 
    DOCC [    21 ]

  Energy converged.

  @DF-RKS Final Energy:  -329.26657902693279

   => Energetics <=

    Nuclear Repulsion Energy =            188.1849822356595325
    One-Electron Energy =                -825.7948119276438774
    Two-Electron Energy =                 327.6498214302157521
    DFT Exchange-Correlation Energy =     -19.3065707651641603
    Empirical Dispersion Energy =           0.0000000000000000
    VV10 Nonlocal Energy =                  0.0000000000000000
    Total Energy =                       -329.2665790269327886



Properties will be evaluated at   0.000000,   0.000000,   0.000000 [a0]

Properties computed using the SCF density matrix

  Nuclear Dipole Moment: [e a0]
     X:     3.4737      Y:     3.4770      Z:    -4.8133

  Electronic Dipole Moment: [e a0]
     X:    -2.5813      Y:    -2.9363      Z:     3.0657

  Dipole Moment: [e a0]
     X:     0.8925      Y:     0.5408      Z:    -1.7476     Total:     2.0355

  Dipole Moment: [D]
     X:     2.2684      Y:     1.3745      Z:    -4.4420     Total:     5.1736


*** tstop() called on localhost.localdomain at Thu Jan 17 12:17:45 2019
Module time:
	user time   =     148.34 seconds =       2.47 minutes
	system time =       3.00 seconds =       0.05 minutes
	total time  =         11 seconds =       0.18 minutes
Total time:
	user time   =     148.34 seconds =       2.47 minutes
	system time =       3.00 seconds =       0.05 minutes
	total time  =         11 seconds =       0.18 minutes

*** tstart() called on localhost.localdomain
*** at Thu Jan 17 12:17:45 2019


         ------------------------------------------------------------
                                   SCF GRAD                          
                          Rob Parrish, Justin Turney,                
                       Andy Simmonett, and Alex Sokolov              
         ------------------------------------------------------------

  ==> Geometry <==

    Molecular point group: c1
    Full point group: C1

    Geometry (in Angstrom), charge = 0, multiplicity = 1:

       Center              X                  Y                   Z               Mass       
    ------------   -----------------  -----------------  -----------------  -----------------
         C           -0.218168782078    -0.884800361812    -0.246138401004    12.000000000000
         O           -1.287759782078    -0.667469361812    -0.968905401004    15.994914619560
         O            0.072573217922     0.746837638188    -0.029912401004    15.994914619560
         H           -0.863797782078     0.564777638188    -0.715284401004     1.007825032070
         H            1.106881217922     2.409570638188    -0.644963401004     1.007825032070
         C            1.253094217922     1.329863638188    -0.601781401004    12.000000000000
         H            1.433876217922     0.939852638188    -1.609071401004     1.007825032070
         H            2.104683217922     1.108317638188     0.042372598996     1.007825032070
         F            0.163746217922    -0.517065361812     1.565039598996    18.998403224000
         H            0.094807217922    -1.834298361812    -0.627450401004     1.007825032070

  Nuclear repulsion =  188.184982235659533

  ==> Basis Set <==

  Basis Set: 6-311++G(D,P)
    Blend: 6-311++G(D,P)
    Number of shells: 75
    Number of basis function: 145
    Number of Cartesian functions: 150
    Spherical Harmonics?: true
    Max angular momentum: 2

  ==> DFJKGrad: Density-Fitted SCF Gradients <==

    Gradient:                    1
    J tasked:                  Yes
    K tasked:                  Yes
    wK tasked:                  No
    OpenMP threads:             16
    Integrals threads:          16
    Memory (MB):               375
    Schwarz Cutoff:          0E+00
    Fitting Condition:       1E-12

   => Auxiliary Basis Set <=

  Basis Set: (6-311++G(D,P) AUX)
    Blend: AUG-CC-PVTZ-JKFIT
    Number of shells: 220
    Number of basis function: 750
    Number of Cartesian functions: 930
    Spherical Harmonics?: true
    Max angular momentum: 4

  ==> DFT Potential <==

   => Composite Functional: M06-2X <= 

    Hybrid M06-2X Meta-GGA XC Functional

    Y. Zhao and D. G. Truhlar,  Theor. Chem. Acc., 120, 215, 2008


    Deriv               =              1
    GGA                 =           TRUE
    Meta                =           TRUE

    Exchange Hybrid     =           TRUE
    MP2 Hybrid          =          FALSE

   => Exchange Functionals <=

    1.0000   XC_HYB_MGGA_X_M06_2X

   => Exact (HF) Exchange <=

    0.5400               HF 

   => Correlation Functionals <=

    1.0000   XC_MGGA_C_M06_2X

   => Molecular Quadrature <=

    Radial Scheme       =       TREUTLER
    Pruning Scheme      =           FLAT
    Nuclear Scheme      =       TREUTLER

    BS radius alpha     =              1
    Pruning alpha       =              1
    Radial Points       =             75
    Spherical Points    =            302
    Total Points        =         226500
    Total Blocks        =           1741
    Max Points          =            256
    Max Functions       =            143


  -Total Gradient:
     Atom            X                  Y                   Z
    ------   -----------------  -----------------  -----------------
       1        0.077714056128    -0.076238796308    -0.010233743141
       2       -0.047418670219    -0.000390443517    -0.057933103655
       3        0.003633934155     0.012432210123     0.077132303247
       4       -0.008682534138    -0.015649032317    -0.011675874142
       5        0.001532170899     0.001073008392    -0.000921463875
       6       -0.001275940906    -0.000281019540     0.003605797284
       7        0.000303796941    -0.001187954003    -0.000901069766
       8        0.003490483598     0.001825361898    -0.001589615557
       9        0.019423910595     0.065294384237     0.023565651227
      10       -0.048552121839     0.013089929419    -0.020950731392


*** tstop() called on localhost.localdomain at Thu Jan 17 12:17:48 2019
Module time:
	user time   =      36.22 seconds =       0.60 minutes
	system time =       1.95 seconds =       0.03 minutes
	total time  =          3 seconds =       0.05 minutes
Total time:
	user time   =     184.61 seconds =       3.08 minutes
	system time =       4.96 seconds =       0.08 minutes
	total time  =         14 seconds =       0.23 minutes

			-----------------------------------------
			 OPTKING 2.0: for geometry optimizations 
			  - R.A. King,  Bethel University        
			-----------------------------------------

	Internal coordinates to be generated automatically.
	Detected frag 1 with atoms:  1 2 3 4 5 6 7 8 10
	Detected frag 2 with atoms:  9
	Unifying fragments since fragment_mode == SINGLE
	Connecting fragments 1 and 2
	---Fragment 1 Bond Connectivity---
	 1 : 2 3 9 10
	 2 : 1
	 3 : 1 4 6
	 4 : 3
	 5 : 6
	 6 : 3 5 7 8
	 7 : 6
	 8 : 6
	 9 : 1
	 10 : 1

	---Fragment 1 Geometry and Gradient---
	 C          -0.4122792489       -1.6720303661       -0.4651341687
	 O          -2.4335133131       -1.2613342959       -1.8309658566
	 O           0.1371435065        1.4113186019       -0.0565262459
	 H          -1.6323412423        1.0672750622       -1.3516916250
	 H           2.0917023635        4.5534286040       -1.2188041936
	 C           2.3680048906        2.5130780703       -1.1372020398
	 H           2.7096333603        1.7760640914       -3.0407042762
	 H           3.9772748784        2.0944168044        0.0800726076
	 F           0.3094355072       -0.9771119266        2.9574962292
	 H           0.1791596773       -3.4663215498       -1.1857094199
	             0.0777140561       -0.0762387963       -0.0102337431
	            -0.0474186702       -0.0003904435       -0.0579331037
	             0.0036339342        0.0124322101        0.0771323032
	            -0.0086825341       -0.0156490323       -0.0116758741
	             0.0015321709        0.0010730084       -0.0009214639
	            -0.0012759409       -0.0002810195        0.0036057973
	             0.0003037969       -0.0011879540       -0.0009010698
	             0.0034904836        0.0018253619       -0.0015896156
	             0.0194239106        0.0652943842        0.0235656512
	            -0.0485521218        0.0130899294       -0.0209507314

	Previous optimization step data not found.  Starting new optimization.

	---Fragment 1 Intrafragment Coordinates---
	 - Coordinate -           - BOHR/RAD -       - ANG/DEG -
	 H(2,4)           =         2.508785	       1.327592
	 R(1,2)           =         2.473773	       1.309064
	 R(1,3)           =         3.158460	       1.671385
	 R(1,9)           =         3.566256	       1.887181
	 R(1,10)          =         2.022006	       1.070000
	 R(3,4)           =         2.219661	       1.174594
	 R(3,6)           =         2.712651	       1.435473
	 R(5,6)           =         2.060590	       1.090417
	 R(6,7)           =         2.069594	       1.095182
	 R(6,8)           =         2.060773	       1.090514
	 B(1,3,4)         =         1.196657	      68.563383
	 B(1,3,6)         =         2.080611	     119.210256
	 B(2,1,3)         =         1.622306	      92.951280
	 B(2,1,9)         =         2.295469	     131.520682
	 B(2,1,10)        =         1.761507	     100.926921
	 B(3,1,9)         =         1.213665	      69.537879
	 B(3,1,10)        =         2.609014	     149.485482
	 B(3,6,5)         =         1.883539	     107.918836
	 B(3,6,7)         =         1.936414	     110.948339
	 B(3,6,8)         =         1.901149	     108.927795
	 B(4,3,6)         =         2.078415	     119.084409
	 B(5,6,7)         =         1.915936	     109.775054
	 B(5,6,8)         =         1.906321	     109.224165
	 B(7,6,8)         =         1.919875	     110.000713
	 B(9,1,10)        =         2.043994	     117.112208
	 D(1,3,6,5)       =         2.820439	     161.599226
	 D(1,3,6,7)       =         0.720803	      41.298965
	 D(1,3,6,8)       =        -1.395035	     -79.929629
	 D(2,1,3,4)       =        -0.036551	      -2.094218
	 D(2,1,3,6)       =        -1.995825	    -114.352366
	 D(4,3,1,9)       =        -2.367781	    -135.663884
	 D(4,3,1,10)      =         2.013694	     115.376196
	 D(4,3,6,5)       =         1.418579	      81.278577
	 D(4,3,6,7)       =        -0.681057	     -39.021684
	 D(4,3,6,8)       =        -2.796895	    -160.250278
	 D(6,3,1,9)       =         1.956130	     112.077968
	 D(6,3,1,10)      =         0.054420	       3.118048

	Current energy   :      -329.2665790269

	Generating empirical Hessian (Schlegel '84) for each fragment.
	Taking PRFO optimization step.
	Maximizing along 1 lowest eigenvalue of Hessian.

 RFO min eigenvalues
 -0.122406 -0.000000 -0.000000 -0.000000 -0.000000 -0.000000 -0.000000 -0.000000
  0.000000  0.000000  0.000000  0.000000  0.000000  0.000255  0.002369  0.031506
  0.032417  0.054382  0.069803  0.073417  0.094751  0.115088  0.126947  0.160000
  0.160000  0.160000  0.164392  0.199958  0.228096  0.263078  0.312834  0.342221
  0.347548  0.347651  0.374143  0.402192  0.653294

 RFO max eigenvalues
 -0.000000  0.000000
	Change in coordinate exceeds step limit of    0.50000.
	Scaling displacements by    0.78681
	|RFO target step|  :        0.5000000000
	RFO gradient       :       -0.1926202202
	RFO hessian        :        0.1855214391
	Projected Delta(E) :       -0.0584959442

	Back-transformation to cartesian coordinates...
	Could not converge backtransformation.
	Using first guess instead.

	--- Internal Coordinate Step in ANG or DEG, aJ/ANG or AJ/DEG ---
	 ---------------------------------------------------------------------------
	   Coordinate                Previous        Force       Change         New 
	   ----------                --------       ------       ------       ------
	    1 H(2,4)          =      1.327592     0.005750     0.019513     1.347104
	    2 R(1,2)          =      1.309064    -0.583931    -0.037113     1.271952
	    3 R(1,3)          =      1.671385    -0.059740    -0.010964     1.660421
	    4 R(1,9)          =      1.887181    -0.323201     0.013279     1.900460
	    5 R(1,10)         =      1.070000     0.151322     0.023155     1.093155
	    6 R(3,4)          =      1.174594    -0.130187    -0.014969     1.159625
	    7 R(3,6)          =      1.435473    -0.031525    -0.002110     1.433363
	    8 R(5,6)          =      1.090417    -0.007227     0.000151     1.090569
	    9 R(6,7)          =      1.095182    -0.010719    -0.000093     1.095089
	   10 R(6,8)          =      1.090514    -0.011788    -0.000954     1.089560
	   11 B(1,3,4)        =     68.563383     0.000871     1.968279    70.531662
	   12 B(1,3,6)        =    119.210256    -0.000357    -0.212222   118.998034
	   13 B(2,1,3)        =     92.951280    -0.000257    -0.337590    92.613690
	   14 B(2,1,9)        =    131.520682    -0.000516    -5.979944   125.540738
	   15 B(2,1,10)       =    100.926921     0.002247     4.785719   105.712640
	   16 B(3,1,9)        =     69.537879     0.010522    19.443687    88.981565
	   17 B(3,1,10)       =    149.485482    -0.004009    -7.994912   141.490570
	   18 B(3,6,5)        =    107.918836    -0.000168    -0.334419   107.584417
	   19 B(3,6,7)        =    110.948339     0.000169     0.400186   111.348525
	   20 B(3,6,8)        =    108.927795    -0.000440    -1.003542   107.924254
	   21 B(4,3,6)        =    119.084409    -0.000295    -0.227341   118.857067
	   22 B(5,6,7)        =    109.775054     0.000057     0.159234   109.934287
	   23 B(5,6,8)        =    109.224165     0.000211     0.413797   109.637962
	   24 B(7,6,8)        =    110.000713     0.000164     0.341731   110.342444
	   25 B(9,1,10)       =    117.112208    -0.007063   -11.062860   106.049348
	   26 D(1,3,6,5)      =    161.599226     0.000105     1.390337   162.989563
	   27 D(1,3,6,7)      =     41.298965     0.000090     1.168249    42.467214
	   28 D(1,3,6,8)      =    -79.929629     0.000085     1.151248   -78.778381
	   29 D(2,1,3,4)      =     -2.094218    -0.000275    -2.568967    -4.663185
	   30 D(2,1,3,6)      =   -114.352366    -0.000300    -3.223858  -117.576224
	   31 D(4,3,1,9)      =   -135.663884     0.000514     5.468004  -130.195880
	   32 D(4,3,1,10)     =    115.376196    -0.000128    -0.517041   114.859155
	   33 D(4,3,6,5)      =     81.278577    -0.000072    -0.839436    80.439141
	   34 D(4,3,6,7)      =    -39.021684    -0.000087    -1.061524   -40.083208
	   35 D(4,3,6,8)      =   -160.250278    -0.000092    -1.078525  -161.328803
	   36 D(6,3,1,9)      =    112.077968     0.000488     4.813112   116.891081
	   37 D(6,3,1,10)     =      3.118048    -0.000154    -1.171932     1.946116
	 ---------------------------------------------------------------------------
	Successfully symmetrized geometry.

  ==> Convergence Check <==

  Measures of convergence in internal coordinates in au.
  Criteria marked as inactive (o), active & met (*), and active & unmet ( ).
  --------------------------------------------------------------------------------------------- ~
   Step     Total Energy     Delta E     MAX Force     RMS Force      MAX Disp      RMS Disp    ~
  --------------------------------------------------------------------------------------------- ~
    Convergence Criteria    1.00e-06 *    3.00e-04 *             o    1.20e-03 *             o  ~
  --------------------------------------------------------------------------------------------- ~
      1    -329.26657903   -3.29e+02      1.38e-01      3.34e-02 o    3.39e-01      7.81e-02 o  ~
  ---------------------------------------------------------------------------------------------

	Writing optimization data to binary file.
	Structure for next step:
	Cartesian Geometry (in Angstrom)
	    C    -0.2045244546  -0.8140716935  -0.1886721818
	    O    -1.2775819134  -0.6367078436  -0.8481805356
	    O     0.0839019397   0.8170289852  -0.0732682902
	    H    -0.8486762023   0.6355451119  -0.7381689052
	    H     1.1296310837   2.4359070006  -0.7617904007
	    C     1.2675020885   1.3576223998  -0.6744172408
	    H     1.4466022030   0.9227715895  -1.6633799201
	    H     2.1061211952   1.1482538129  -0.0110746088
	    F    -0.0782455337  -0.9359026354   1.7036701592
	    H     0.2352047731  -1.7348603456  -0.5808130861
			--------------------------
			 OPTKING Finished Execution 
			--------------------------

    Structure for next step:
    Molecular point group: c1
    Full point group: C1

    Geometry (in Angstrom), charge = 0, multiplicity = 1:

    C           -0.158004167387    -0.752348500741    -0.232242689285
    O           -1.231061626217    -0.574984650796    -0.891751043147
    O            0.130422226935     0.878752177960    -0.116838797684
    H           -0.802155915065     0.697268304707    -0.781739412750
    H            1.176151370865     2.497630193349    -0.805360908214
    C            1.314022375750     1.419345592618    -0.717987748374
    H            1.493122490214     0.984494782301    -1.706950427581
    H            2.152641482416     1.209977005719    -0.054645116318
    F           -0.031725246464    -0.874179442591     1.660099651693
    H            0.281725060288    -1.673137152766    -0.624383593678

gradient() will perform analytic gradient computation.

*** tstart() called on localhost.localdomain
*** at Thu Jan 17 12:17:48 2019

   => Loading Basis Set <=

    Name: 6-311++G(D,P)
    Role: ORBITAL
    Keyword: BASIS
    atoms 1, 6         entry C          line   119 file /root/psi4conda/share/psi4/basis/6-311ppg_d_p_.gbs 
    atoms 2-3          entry O          line   161 file /root/psi4conda/share/psi4/basis/6-311ppg_d_p_.gbs 
    atoms 4-5, 7-8, 10 entry H          line    42 file /root/psi4conda/share/psi4/basis/6-311ppg_d_p_.gbs 
    atoms 9            entry F          line   182 file /root/psi4conda/share/psi4/basis/6-311ppg_d_p_.gbs 


         ---------------------------------------------------------
                                   SCF
            by Justin Turney, Rob Parrish, Andy Simmonett
                             and Daniel Smith
                              RKS Reference
                       16 Threads,    500 MiB Core
         ---------------------------------------------------------

  ==> Geometry <==

    Molecular point group: c1
    Full point group: C1

    Geometry (in Angstrom), charge = 0, multiplicity = 1:

       Center              X                  Y                   Z               Mass       
    ------------   -----------------  -----------------  -----------------  -----------------
         C           -0.158004167387    -0.752348500741    -0.232242689285    12.000000000000
         O           -1.231061626217    -0.574984650796    -0.891751043147    15.994914619560
         O            0.130422226935     0.878752177960    -0.116838797684    15.994914619560
         H           -0.802155915065     0.697268304707    -0.781739412750     1.007825032070
         H            1.176151370865     2.497630193349    -0.805360908214     1.007825032070
         C            1.314022375750     1.419345592618    -0.717987748374    12.000000000000
         H            1.493122490214     0.984494782301    -1.706950427581     1.007825032070
         H            2.152641482416     1.209977005719    -0.054645116318     1.007825032070
         F           -0.031725246464    -0.874179442591     1.660099651693    18.998403224000
         H            0.281725060288    -1.673137152766    -0.624383593678     1.007825032070

  Running in c1 symmetry.

  Rotational constants: A =      0.20646  B =      0.12400  C =      0.08627 [cm^-1]
  Rotational constants: A =   6189.55735  B =   3717.47387  C =   2586.41443 [MHz]
  Nuclear repulsion =  184.070047465616454

  Charge       = 0
  Multiplicity = 1
  Electrons    = 42
  Nalpha       = 21
  Nbeta        = 21

  ==> Algorithm <==

  SCF Algorithm Type is DF.
  DIIS enabled.
  MOM disabled.
  Fractional occupation disabled.
  Guess Type is READ.
  Energy threshold   = 1.00e-08
  Density threshold  = 1.00e-08
  Integral threshold = 0.00e+00

  ==> Primary Basis <==

  Basis Set: 6-311++G(D,P)
    Blend: 6-311++G(D,P)
    Number of shells: 75
    Number of basis function: 145
    Number of Cartesian functions: 150
    Spherical Harmonics?: true
    Max angular momentum: 2

  ==> DFT Potential <==

   => Composite Functional: M06-2X <= 

    Hybrid M06-2X Meta-GGA XC Functional

    Y. Zhao and D. G. Truhlar,  Theor. Chem. Acc., 120, 215, 2008


    Deriv               =              1
    GGA                 =           TRUE
    Meta                =           TRUE

    Exchange Hybrid     =           TRUE
    MP2 Hybrid          =          FALSE

   => Exchange Functionals <=

    1.0000   XC_HYB_MGGA_X_M06_2X

   => Exact (HF) Exchange <=

    0.5400               HF 

   => Correlation Functionals <=

    1.0000   XC_MGGA_C_M06_2X

   => Molecular Quadrature <=

    Radial Scheme       =       TREUTLER
    Pruning Scheme      =           FLAT
    Nuclear Scheme      =       TREUTLER

    BS radius alpha     =              1
    Pruning alpha       =              1
    Radial Points       =             75
    Spherical Points    =            302
    Total Points        =         226500
    Total Blocks        =           1734
    Max Points          =            256
    Max Functions       =            143

   => Loading Basis Set <=

    Name: (6-311++G(D,P) AUX)
    Role: JKFIT
    Keyword: DF_BASIS_SCF
    atoms 1, 6         entry C          line   162 file /root/psi4conda/share/psi4/basis/aug-cc-pvtz-jkfit.gbs 
    atoms 2-3          entry O          line   286 file /root/psi4conda/share/psi4/basis/aug-cc-pvtz-jkfit.gbs 
    atoms 4-5, 7-8, 10 entry H          line    70 file /root/psi4conda/share/psi4/basis/aug-cc-pvtz-jkfit.gbs 
    atoms 9            entry F          line   348 file /root/psi4conda/share/psi4/basis/aug-cc-pvtz-jkfit.gbs 

  Reading orbitals from file 180, no projection.

  ==> Pre-Iterations <==

   -------------------------------------------------------
    Irrep   Nso     Nmo     Nalpha   Nbeta   Ndocc  Nsocc
   -------------------------------------------------------
     A        145     145       0       0       0       0
   -------------------------------------------------------
    Total     145     145      21      21      21       0
   -------------------------------------------------------

  ==> Integral Setup <==

  DFHelper Memory: AOs need 0.151 [GiB]; user supplied 0.366 [GiB]. Using in-core AOs.

  ==> MemDFJK: Density-Fitted J/K Matrices <==

    J tasked:                   Yes
    K tasked:                   Yes
    wK tasked:                   No
    OpenMP threads:              16
    Memory (MB):                375
    Algorithm:                 Core
    Schwarz Cutoff:           1E-12
    Mask sparsity (%):       3.0630
    Fitting Condition:        1E-12

   => Auxiliary Basis Set <=

  Basis Set: (6-311++G(D,P) AUX)
    Blend: AUG-CC-PVTZ-JKFIT
    Number of shells: 220
    Number of basis function: 750
    Number of Cartesian functions: 930
    Spherical Harmonics?: true
    Max angular momentum: 4

  Minimum eigenvalue in the overlap matrix is 6.0951131357E-04.
  Using Symmetric Orthogonalization.

  SCF Guess: Orbitals guess was supplied from a previous computation.

  ==> Iterations <==

                           Total Energy        Delta E     RMS |[F,P]|

   @DF-RKS iter   0:  -329.37704048828311   -3.29377e+02   9.29544e-03 
   @DF-RKS iter   1:  -329.30400785631855    7.30326e-02   3.32462e-03 
   @DF-RKS iter   2:  -329.30187049914935    2.13736e-03   4.21482e-03 DIIS
   @DF-RKS iter   3:  -329.31259282191320   -1.07223e-02   5.54373e-04 DIIS
   @DF-RKS iter   4:  -329.31303944627700   -4.46624e-04   2.66014e-04 DIIS
   @DF-RKS iter   5:  -329.31318802190708   -1.48576e-04   2.21756e-04 DIIS
   @DF-RKS iter   6:  -329.31322947843375   -4.14565e-05   8.63836e-05 DIIS
   @DF-RKS iter   7:  -329.31323577393107   -6.29550e-06   1.87364e-05 DIIS
   @DF-RKS iter   8:  -329.31323608536269   -3.11432e-07   1.18406e-05 DIIS
   @DF-RKS iter   9:  -329.31323619244409   -1.07081e-07   2.99798e-06 DIIS
   @DF-RKS iter  10:  -329.31323620157372   -9.12962e-09   1.10272e-06 DIIS
   @DF-RKS iter  11:  -329.31323620300276   -1.42904e-09   2.47845e-07 DIIS
   @DF-RKS iter  12:  -329.31323620313321   -1.30456e-10   7.02639e-08 DIIS
   @DF-RKS iter  13:  -329.31323620314328   -1.00613e-11   2.90359e-08 DIIS
   @DF-RKS iter  14:  -329.31323620314379   -5.11591e-13   9.35650e-09 DIIS

  ==> Post-Iterations <==

    Orbital Energies [Eh]
    ---------------------

    Doubly Occupied:                                                      

       1A    -25.138304     2A    -19.737782     3A    -19.672447  
       4A    -10.763914     5A    -10.637454     6A     -1.278060  
       7A     -1.179566     8A     -1.176754     9A     -0.848294  
      10A     -0.757376    11A     -0.678290    12A     -0.613035  
      13A     -0.592096    14A     -0.557600    15A     -0.525320  
      16A     -0.492550    17A     -0.475139    18A     -0.408835  
      19A     -0.402230    20A     -0.397228    21A     -0.378529  

    Virtual:                                                              

      22A     -0.018994    23A     -0.014049    24A     -0.007938  
      25A      0.008976    26A      0.011411    27A      0.023858  
      28A      0.042247    29A      0.064709    30A      0.066468  
      31A      0.086988    32A      0.090972    33A      0.107605  
      34A      0.114948    35A      0.123846    36A      0.138936  
      37A      0.167451    38A      0.175687    39A      0.181180  
      40A      0.186864    41A      0.211325    42A      0.224114  
      43A      0.250745    44A      0.261374    45A      0.273965  
      46A      0.279837    47A      0.310305    48A      0.312691  
      49A      0.324931    50A      0.340732    51A      0.372660  
      52A      0.389746    53A      0.399187    54A      0.425055  
      55A      0.454607    56A      0.457782    57A      0.474814  
      58A      0.507103    59A      0.564201    60A      0.585567  
      61A      0.609101    62A      0.636446    63A      0.649492  
      64A      0.689176    65A      0.702401    66A      0.707990  
      67A      0.898300    68A      0.947033    69A      0.995134  
      70A      1.021183    71A      1.049399    72A      1.102396  
      73A      1.111115    74A      1.148248    75A      1.178817  
      76A      1.216180    77A      1.310923    78A      1.329614  
      79A      1.369263    80A      1.441734    81A      1.455311  
      82A      1.477846    83A      1.511848    84A      1.543507  
      85A      1.549151    86A      1.568460    87A      1.594488  
      88A      1.639539    89A      1.663432    90A      1.690734  
      91A      1.711053    92A      1.730524    93A      1.768158  
      94A      1.829139    95A      1.871889    96A      1.983930  
      97A      2.030002    98A      2.051623    99A      2.077702  
     100A      2.129035   101A      2.207461   102A      2.403000  
     103A      2.424650   104A      2.494915   105A      2.501858  
     106A      2.527007   107A      2.552483   108A      2.632255  
     109A      2.659331   110A      2.733858   111A      2.826703  
     112A      2.855900   113A      2.933805   114A      2.959462  
     115A      3.087632   116A      3.125863   117A      3.197110  
     118A      3.247261   119A      3.358053   120A      3.498412  
     121A      3.673474   122A      3.781474   123A      3.795150  
     124A      3.874822   125A      3.963430   126A      4.000048  
     127A      4.007459   128A      4.010848   129A      4.046953  
     130A      4.062336   131A      4.151845   132A      5.121668  
     133A      5.127718   134A      5.218932   135A      5.251636  
     136A      5.573893   137A      5.644948   138A      6.561444  
     139A      6.592974   140A      6.633334   141A     23.743348  
     142A     23.935785   143A     49.917067   144A     49.987620  
     145A     66.993171  

    Final Occupation by Irrep:
              A 
    DOCC [    21 ]

  Energy converged.

  @DF-RKS Final Energy:  -329.31323620314379

   => Energetics <=

    Nuclear Repulsion Energy =            184.0700474656164545
    One-Electron Energy =                -817.4099495169779175
    Two-Electron Energy =                 323.3285826622299055
    DFT Exchange-Correlation Energy =     -19.3019168140122233
    Empirical Dispersion Energy =           0.0000000000000000
    VV10 Nonlocal Energy =                  0.0000000000000000
    Total Energy =                       -329.3132362031437879



Properties will be evaluated at   0.000000,   0.000000,   0.000000 [a0]

Properties computed using the SCF density matrix

  Nuclear Dipole Moment: [e a0]
     X:     4.0572      Y:     4.3100      Z:    -5.2955

  Electronic Dipole Moment: [e a0]
     X:    -2.8621      Y:    -3.2748      Z:     3.3054

  Dipole Moment: [e a0]
     X:     1.1951      Y:     1.0352      Z:    -1.9901     Total:     2.5417

  Dipole Moment: [D]
     X:     3.0375      Y:     2.6311      Z:    -5.0584     Total:     6.4604


*** tstop() called on localhost.localdomain at Thu Jan 17 12:17:57 2019
Module time:
	user time   =     135.14 seconds =       2.25 minutes
	system time =       1.94 seconds =       0.03 minutes
	total time  =          9 seconds =       0.15 minutes
Total time:
	user time   =     320.32 seconds =       5.34 minutes
	system time =       6.95 seconds =       0.12 minutes
	total time  =         23 seconds =       0.38 minutes

*** tstart() called on localhost.localdomain
*** at Thu Jan 17 12:17:57 2019


         ------------------------------------------------------------
                                   SCF GRAD                          
                          Rob Parrish, Justin Turney,                
                       Andy Simmonett, and Alex Sokolov              
         ------------------------------------------------------------

  ==> Geometry <==

    Molecular point group: c1
    Full point group: C1

    Geometry (in Angstrom), charge = 0, multiplicity = 1:

       Center              X                  Y                   Z               Mass       
    ------------   -----------------  -----------------  -----------------  -----------------
         C           -0.158004167387    -0.752348500741    -0.232242689285    12.000000000000
         O           -1.231061626217    -0.574984650796    -0.891751043147    15.994914619560
         O            0.130422226935     0.878752177960    -0.116838797684    15.994914619560
         H           -0.802155915065     0.697268304707    -0.781739412750     1.007825032070
         H            1.176151370865     2.497630193349    -0.805360908214     1.007825032070
         C            1.314022375750     1.419345592618    -0.717987748374    12.000000000000
         H            1.493122490214     0.984494782301    -1.706950427581     1.007825032070
         H            2.152641482416     1.209977005719    -0.054645116318     1.007825032070
         F           -0.031725246464    -0.874179442591     1.660099651693    18.998403224000
         H            0.281725060288    -1.673137152766    -0.624383593678     1.007825032070

  Nuclear repulsion =  184.070047465616454

  ==> Basis Set <==

  Basis Set: 6-311++G(D,P)
    Blend: 6-311++G(D,P)
    Number of shells: 75
    Number of basis function: 145
    Number of Cartesian functions: 150
    Spherical Harmonics?: true
    Max angular momentum: 2

  ==> DFJKGrad: Density-Fitted SCF Gradients <==

    Gradient:                    1
    J tasked:                  Yes
    K tasked:                  Yes
    wK tasked:                  No
    OpenMP threads:             16
    Integrals threads:          16
    Memory (MB):               375
    Schwarz Cutoff:          0E+00
    Fitting Condition:       1E-12

   => Auxiliary Basis Set <=

  Basis Set: (6-311++G(D,P) AUX)
    Blend: AUG-CC-PVTZ-JKFIT
    Number of shells: 220
    Number of basis function: 750
    Number of Cartesian functions: 930
    Spherical Harmonics?: true
    Max angular momentum: 4

  ==> DFT Potential <==

   => Composite Functional: M06-2X <= 

    Hybrid M06-2X Meta-GGA XC Functional

    Y. Zhao and D. G. Truhlar,  Theor. Chem. Acc., 120, 215, 2008


    Deriv               =              1
    GGA                 =           TRUE
    Meta                =           TRUE

    Exchange Hybrid     =           TRUE
    MP2 Hybrid          =          FALSE

   => Exchange Functionals <=

    1.0000   XC_HYB_MGGA_X_M06_2X

   => Exact (HF) Exchange <=

    0.5400               HF 

   => Correlation Functionals <=

    1.0000   XC_MGGA_C_M06_2X

   => Molecular Quadrature <=

    Radial Scheme       =       TREUTLER
    Pruning Scheme      =           FLAT
    Nuclear Scheme      =       TREUTLER

    BS radius alpha     =              1
    Pruning alpha       =              1
    Radial Points       =             75
    Spherical Points    =            302
    Total Points        =         226500
    Total Blocks        =           1734
    Max Points          =            256
    Max Functions       =            143


  -Total Gradient:
     Atom            X                  Y                   Z
    ------   -----------------  -----------------  -----------------
       1        0.066431336875    -0.024317391201    -0.024290353943
       2       -0.023223221976     0.002315888031    -0.032274737449
       3       -0.002956658124     0.037483977789     0.022565178264
       4       -0.008424147777    -0.008122235057    -0.017446829107
       5        0.000836826134     0.001442406403    -0.000891998793
       6       -0.005081094673    -0.001502101436     0.000486205973
       7        0.001310766051    -0.000238247675    -0.001521659061
       8        0.001472124105     0.000001351576     0.000153945772
       9        0.007767418584     0.000892927506     0.075122430215
      10       -0.037978079083    -0.007730098503    -0.021793817179


*** tstop() called on localhost.localdomain at Thu Jan 17 12:18:00 2019
Module time:
	user time   =      37.86 seconds =       0.63 minutes
	system time =       1.77 seconds =       0.03 minutes
	total time  =          3 seconds =       0.05 minutes
Total time:
	user time   =     358.22 seconds =       5.97 minutes
	system time =       8.73 seconds =       0.15 minutes
	total time  =         26 seconds =       0.43 minutes

			-----------------------------------------
			 OPTKING 2.0: for geometry optimizations 
			  - R.A. King,  Bethel University        
			-----------------------------------------

	Previous internal coordinate definitions found.
	---Fragment 1 Geometry and Gradient---
	 C          -0.2985846042       -1.4217326229       -0.4388750791
	 O          -2.3263693263       -1.0865635206       -1.6851652503
	 O           0.2464622905        1.6606009550       -0.2207933293
	 H          -1.5158549953        1.3176461370       -1.4772733974
	 H           2.2226039818        4.7198370467       -1.5219115547
	 C           2.4831424227        2.6821744580       -1.3568002112
	 H           2.8215925894        1.8604255178       -3.2256688305
	 H           4.0679028641        2.2865251679       -0.1032643043
	 F          -0.0599520273       -1.6519597375        3.1371336950
	 H           0.5323832087       -3.1617710015       -1.1799139939
	             0.0664313369       -0.0243173912       -0.0242903539
	            -0.0232232220        0.0023158880       -0.0322747374
	            -0.0029566581        0.0374839778        0.0225651783
	            -0.0084241478       -0.0081222351       -0.0174468291
	             0.0008368261        0.0014424064       -0.0008919988
	            -0.0050810947       -0.0015021014        0.0004862060
	             0.0013107661       -0.0002382477       -0.0015216591
	             0.0014721241        0.0000013516        0.0001539458
	             0.0077674186        0.0008929275        0.0751224302
	            -0.0379780791       -0.0077300985       -0.0217938172

	---Fragment 1 Intrafragment Coordinates---
	 - Coordinate -           - BOHR/RAD -       - ANG/DEG -
	 H(2,4)           =         2.545658	       1.347104
	 R(1,2)           =         2.403641	       1.271952
	 R(1,3)           =         3.137741	       1.660421
	 R(1,9)           =         3.591349	       1.900460
	 R(1,10)          =         2.065764	       1.093155
	 R(3,4)           =         2.191375	       1.159625
	 R(3,6)           =         2.708664	       1.433363
	 R(5,6)           =         2.060876	       1.090569
	 R(6,7)           =         2.069418	       1.095089
	 R(6,8)           =         2.058970	       1.089560
	 B(1,3,4)         =         1.231010	      70.531662
	 B(1,3,6)         =         2.076907	     118.998034
	 B(2,1,3)         =         1.616414	      92.613690
	 B(2,1,9)         =         2.191099	     125.540738
	 B(2,1,10)        =         1.845034	     105.712640
	 B(3,1,9)         =         1.553021	      88.981565
	 B(3,1,10)        =         2.469476	     141.490570
	 B(3,6,5)         =         1.877702	     107.584417
	 B(3,6,7)         =         1.943398	     111.348525
	 B(3,6,8)         =         1.883634	     107.924254
	 B(4,3,6)         =         2.074447	     118.857067
	 B(5,6,7)         =         1.918715	     109.934287
	 B(5,6,8)         =         1.913543	     109.637962
	 B(7,6,8)         =         1.925839	     110.342444
	 B(9,1,10)        =         1.850910	     106.049348
	 D(1,3,6,5)       =         2.844705	     162.989563
	 D(1,3,6,7)       =         0.741193	      42.467214
	 D(1,3,6,8)       =        -1.374942	     -78.778381
	 D(2,1,3,4)       =        -0.081388	      -4.663185
	 D(2,1,3,6)       =        -2.052092	    -117.576224
	 D(4,3,1,9)       =        -2.272347	    -130.195880
	 D(4,3,1,10)      =         2.004670	     114.859155
	 D(4,3,6,5)       =         1.403928	      80.439141
	 D(4,3,6,7)       =        -0.699584	     -40.083208
	 D(4,3,6,8)       =        -2.815719	    -161.328803
	 D(6,3,1,9)       =         2.040134	     116.891081
	 D(6,3,1,10)      =         0.033966	       1.946116

	Current energy   :      -329.3132362031

	Energy change for the previous step:
		Projected    :        -0.0584959442
		Actual       :        -0.0466571762

	Performing Bofill update.
	Previous computed or guess Hessian on step 1.
	Steps to be used in Hessian update: 1
	Taking PRFO optimization step.
	Maximizing along 1 lowest eigenvalue of Hessian.

 RFO min eigenvalues
 -0.068670 -0.000000 -0.000000 -0.000000 -0.000000 -0.000000 -0.000000  0.000000
  0.000000  0.000000  0.000000  0.000000  0.000000  0.000257  0.002649  0.030985
  0.035998  0.056114  0.069804  0.073419  0.091180  0.118468  0.135997  0.159884
  0.159979  0.159994  0.165113  0.198376  0.226496  0.261812  0.342204  0.347528
  0.347641  0.371099  0.400791  0.432561  0.644147

 RFO max eigenvalues
 -0.000000  0.000000
	Change in coordinate exceeds step limit of    0.50000.
	Scaling displacements by    0.50129
	|RFO target step|  :        0.5000000000
	RFO gradient       :       -0.0688471760
	RFO hessian        :        0.0368481775
	Projected Delta(E) :       -0.0238540527

	Back-transformation to cartesian coordinates...
	Could not converge backtransformation.
	Using first guess instead.

	--- Internal Coordinate Step in ANG or DEG, aJ/ANG or AJ/DEG ---
	 ---------------------------------------------------------------------------
	   Coordinate                Previous        Force       Change         New 
	   ----------                --------       ------       ------       ------
	    1 H(2,4)          =      1.347104     0.015289     0.024458     1.371563
	    2 R(1,2)          =      1.271952    -0.304756    -0.015559     1.256393
	    3 R(1,3)          =      1.660421    -0.232580    -0.038054     1.622367
	    4 R(1,9)          =      1.900460    -0.620018    -0.110243     1.790217
	    5 R(1,10)         =      1.093155     0.007668     0.012578     1.105733
	    6 R(3,4)          =      1.159625    -0.142024    -0.015013     1.144612
	    7 R(3,6)          =      1.433363     0.005293     0.000533     1.433896
	    8 R(5,6)          =      1.090569    -0.011326    -0.000857     1.089712
	    9 R(6,7)          =      1.095089    -0.014032    -0.001114     1.093974
	   10 R(6,8)          =      1.089560    -0.009935    -0.000860     1.088700
	   11 B(1,3,4)        =     70.531662     0.000192     0.820842    71.352505
	   12 B(1,3,6)        =    118.998034    -0.000097     0.076768   119.074802
	   13 B(2,1,3)        =     92.613690     0.000740     1.947833    94.561523
	   14 B(2,1,9)        =    125.540738    -0.000660    -4.008517   121.532221
	   15 B(2,1,10)       =    105.712640     0.001831     5.660778   111.373418
	   16 B(3,1,9)        =     88.981565     0.001259     4.441505    93.423071
	   17 B(3,1,10)       =    141.490570    -0.003524    -7.583889   133.906680
	   18 B(3,6,5)        =    107.584417    -0.000117    -0.280971   107.303446
	   19 B(3,6,7)        =    111.348525    -0.000079    -0.076300   111.272225
	   20 B(3,6,8)        =    107.924254    -0.000052    -0.259704   107.664549
	   21 B(4,3,6)        =    118.857067     0.000233     1.269468   120.126536
	   22 B(5,6,7)        =    109.934287     0.000093     0.214273   110.148561
	   23 B(5,6,8)        =    109.637962     0.000062     0.154328   109.792290
	   24 B(7,6,8)        =    110.342444     0.000087     0.229058   110.571502
	   25 B(9,1,10)       =    106.049348    -0.000468    -2.718248   103.331100
	   26 D(1,3,6,5)      =    162.989563     0.000038     1.032817   164.022381
	   27 D(1,3,6,7)      =     42.467214     0.000040     0.994596    43.461810
	   28 D(1,3,6,8)      =    -78.778381     0.000034     0.927423   -77.850959
	   29 D(2,1,3,4)      =     -4.663185    -0.000085    -1.038088    -5.701273
	   30 D(2,1,3,6)      =   -117.576224    -0.000169    -2.862616  -120.438841
	   31 D(4,3,1,9)      =   -130.195880     0.000053     2.465525  -127.730355
	   32 D(4,3,1,10)     =    114.859155     0.000294     5.189196   120.048351
	   33 D(4,3,6,5)      =     80.439141    -0.000032    -0.658715    79.780426
	   34 D(4,3,6,7)      =    -40.083208    -0.000030    -0.696936   -40.780145
	   35 D(4,3,6,8)      =   -161.328803    -0.000036    -0.764110  -162.092913
	   36 D(6,3,1,9)      =    116.891081    -0.000032     0.640997   117.532077
	   37 D(6,3,1,10)     =      1.946116     0.000209     3.364668     5.310784
	 ---------------------------------------------------------------------------
	Successfully symmetrized geometry.

  ==> Convergence Check <==

  Measures of convergence in internal coordinates in au.
  Criteria marked as inactive (o), active & met (*), and active & unmet ( ).
  ---------------------------------------------------------------------------------------------
   Step     Total Energy     Delta E     MAX Force     RMS Force      MAX Disp      RMS Disp   
  ---------------------------------------------------------------------------------------------
    Convergence Criteria    1.00e-06 *    3.00e-04 *             o    1.20e-03 *             o
  ---------------------------------------------------------------------------------------------
      2    -329.31323620   -4.67e-02      7.53e-02      1.80e-02 o    2.08e-01      5.53e-02 o  ~
  ---------------------------------------------------------------------------------------------

	Writing optimization data to binary file.
	Structure for next step:
	Cartesian Geometry (in Angstrom)
	    C    -0.1671561666  -0.7143031097  -0.2109056477
	    O    -1.2587462027  -0.5838359942  -0.8191266069
	    O     0.1249495594   0.8793320492  -0.1267836723
	    H    -0.8140500292   0.7122700443  -0.7596398216
	    H     1.1876043560   2.4807318852  -0.8191052110
	    C     1.3159226237   1.4022542860  -0.7302685434
	    H     1.4879843157   0.9607542132  -1.7162971028
	    H     2.1478143214   1.1837255234  -0.0628341140
	    F    -0.1048666488  -0.9283020526   1.5653830110
	    H     0.4056819224  -1.5798085350  -0.5922223766
			--------------------------
			 OPTKING Finished Execution 
			--------------------------

    Structure for next step:
    Molecular point group: c1
    Full point group: C1

    Geometry (in Angstrom), charge = 0, multiplicity = 1:

    C           -0.143508013264    -0.703465173688    -0.202595051185
    O           -1.235098049361    -0.572998058190    -0.810816010388
    O            0.148597712753     0.890169985173    -0.118473075832
    H           -0.790401875907     0.723107980272    -0.751329225049
    H            1.211252509339     2.491569821170    -0.810794614499
    C            1.339570776978     1.413092222035    -0.721957946926
    H            1.511632468979     0.971592149154    -1.707986506315
    H            2.171462474712     1.194563459401    -0.054523517538
    F           -0.081218495491    -0.917464116654     1.573693607525
    H            0.429330075689    -1.568970598989    -0.583911780063

gradient() will perform analytic gradient computation.

*** tstart() called on localhost.localdomain
*** at Thu Jan 17 12:18:00 2019

   => Loading Basis Set <=

    Name: 6-311++G(D,P)
    Role: ORBITAL
    Keyword: BASIS
    atoms 1, 6         entry C          line   119 file /root/psi4conda/share/psi4/basis/6-311ppg_d_p_.gbs 
    atoms 2-3          entry O          line   161 file /root/psi4conda/share/psi4/basis/6-311ppg_d_p_.gbs 
    atoms 4-5, 7-8, 10 entry H          line    42 file /root/psi4conda/share/psi4/basis/6-311ppg_d_p_.gbs 
    atoms 9            entry F          line   182 file /root/psi4conda/share/psi4/basis/6-311ppg_d_p_.gbs 


         ---------------------------------------------------------
                                   SCF
            by Justin Turney, Rob Parrish, Andy Simmonett
                             and Daniel Smith
                              RKS Reference
                       16 Threads,    500 MiB Core
         ---------------------------------------------------------

  ==> Geometry <==

    Molecular point group: c1
    Full point group: C1

    Geometry (in Angstrom), charge = 0, multiplicity = 1:

       Center              X                  Y                   Z               Mass       
    ------------   -----------------  -----------------  -----------------  -----------------
         C           -0.143508013264    -0.703465173688    -0.202595051185    12.000000000000
         O           -1.235098049361    -0.572998058190    -0.810816010388    15.994914619560
         O            0.148597712753     0.890169985173    -0.118473075832    15.994914619560
         H           -0.790401875907     0.723107980272    -0.751329225049     1.007825032070
         H            1.211252509339     2.491569821170    -0.810794614499     1.007825032070
         C            1.339570776978     1.413092222035    -0.721957946926    12.000000000000
         H            1.511632468979     0.971592149154    -1.707986506315     1.007825032070
         H            2.171462474712     1.194563459401    -0.054523517538     1.007825032070
         F           -0.081218495491    -0.917464116654     1.573693607525    18.998403224000
         H            0.429330075689    -1.568970598989    -0.583911780063     1.007825032070

  Running in c1 symmetry.

  Rotational constants: A =      0.22838  B =      0.12246  C =      0.08891 [cm^-1]
  Rotational constants: A =   6846.63989  B =   3671.15152  C =   2665.59774 [MHz]
  Nuclear repulsion =  186.822147979995435

  Charge       = 0
  Multiplicity = 1
  Electrons    = 42
  Nalpha       = 21
  Nbeta        = 21

  ==> Algorithm <==

  SCF Algorithm Type is DF.
  DIIS enabled.
  MOM disabled.
  Fractional occupation disabled.
  Guess Type is READ.
  Energy threshold   = 1.00e-08
  Density threshold  = 1.00e-08
  Integral threshold = 0.00e+00

  ==> Primary Basis <==

  Basis Set: 6-311++G(D,P)
    Blend: 6-311++G(D,P)
    Number of shells: 75
    Number of basis function: 145
    Number of Cartesian functions: 150
    Spherical Harmonics?: true
    Max angular momentum: 2

  ==> DFT Potential <==

   => Composite Functional: M06-2X <= 

    Hybrid M06-2X Meta-GGA XC Functional

    Y. Zhao and D. G. Truhlar,  Theor. Chem. Acc., 120, 215, 2008


    Deriv               =              1
    GGA                 =           TRUE
    Meta                =           TRUE

    Exchange Hybrid     =           TRUE
    MP2 Hybrid          =          FALSE

   => Exchange Functionals <=

    1.0000   XC_HYB_MGGA_X_M06_2X

   => Exact (HF) Exchange <=

    0.5400               HF 

   => Correlation Functionals <=

    1.0000   XC_MGGA_C_M06_2X

   => Molecular Quadrature <=

    Radial Scheme       =       TREUTLER
    Pruning Scheme      =           FLAT
    Nuclear Scheme      =       TREUTLER

    BS radius alpha     =              1
    Pruning alpha       =              1
    Radial Points       =             75
    Spherical Points    =            302
    Total Points        =         226500
    Total Blocks        =           1751
    Max Points          =            256
    Max Functions       =            144

   => Loading Basis Set <=

    Name: (6-311++G(D,P) AUX)
    Role: JKFIT
    Keyword: DF_BASIS_SCF
    atoms 1, 6         entry C          line   162 file /root/psi4conda/share/psi4/basis/aug-cc-pvtz-jkfit.gbs 
    atoms 2-3          entry O          line   286 file /root/psi4conda/share/psi4/basis/aug-cc-pvtz-jkfit.gbs 
    atoms 4-5, 7-8, 10 entry H          line    70 file /root/psi4conda/share/psi4/basis/aug-cc-pvtz-jkfit.gbs 
    atoms 9            entry F          line   348 file /root/psi4conda/share/psi4/basis/aug-cc-pvtz-jkfit.gbs 

  Reading orbitals from file 180, no projection.

  ==> Pre-Iterations <==

   -------------------------------------------------------
    Irrep   Nso     Nmo     Nalpha   Nbeta   Ndocc  Nsocc
   -------------------------------------------------------
     A        145     145       0       0       0       0
   -------------------------------------------------------
    Total     145     145      21      21      21       0
   -------------------------------------------------------

  ==> Integral Setup <==

  DFHelper Memory: AOs need 0.151 [GiB]; user supplied 0.366 [GiB]. Using in-core AOs.

  ==> MemDFJK: Density-Fitted J/K Matrices <==

    J tasked:                   Yes
    K tasked:                   Yes
    wK tasked:                   No
    OpenMP threads:              16
    Memory (MB):                375
    Algorithm:                 Core
    Schwarz Cutoff:           1E-12
    Mask sparsity (%):       2.9108
    Fitting Condition:        1E-12

   => Auxiliary Basis Set <=

  Basis Set: (6-311++G(D,P) AUX)
    Blend: AUG-CC-PVTZ-JKFIT
    Number of shells: 220
    Number of basis function: 750
    Number of Cartesian functions: 930
    Spherical Harmonics?: true
    Max angular momentum: 4

  Minimum eigenvalue in the overlap matrix is 5.7784307018E-04.
  Using Symmetric Orthogonalization.

  SCF Guess: Orbitals guess was supplied from a previous computation.

  ==> Iterations <==

                           Total Energy        Delta E     RMS |[F,P]|

   @DF-RKS iter   0:  -329.39023141502440   -3.29390e+02   5.13489e-03 
   @DF-RKS iter   1:  -329.34367572593226    4.65557e-02   1.54751e-03 
   @DF-RKS iter   2:  -329.34295891785774    7.16808e-04   2.17898e-03 DIIS
   @DF-RKS iter   3:  -329.34509859555368   -2.13968e-03   2.23902e-04 DIIS
   @DF-RKS iter   4:  -329.34514910552480   -5.05100e-05   1.02491e-04 DIIS
   @DF-RKS iter   5:  -329.34515863274180   -9.52722e-06   5.56512e-05 DIIS
   @DF-RKS iter   6:  -329.34516058469882   -1.95196e-06   1.68131e-05 DIIS
   @DF-RKS iter   7:  -329.34516093813119   -3.53432e-07   4.92111e-06 DIIS
   @DF-RKS iter   8:  -329.34516096611696   -2.79858e-08   3.30290e-06 DIIS
   @DF-RKS iter   9:  -329.34516097342782   -7.31086e-09   8.61244e-07 DIIS
   @DF-RKS iter  10:  -329.34516097406697   -6.39147e-10   2.99629e-07 DIIS
   @DF-RKS iter  11:  -329.34516097414945   -8.24798e-11   6.70600e-08 DIIS
   @DF-RKS iter  12:  -329.34516097415826   -8.81073e-12   1.77750e-08 DIIS
   @DF-RKS iter  13:  -329.34516097415855   -2.84217e-13   1.24209e-08 DIIS
   @DF-RKS iter  14:  -329.34516097415866   -1.13687e-13   1.72299e-09 DIIS

  ==> Post-Iterations <==

    Orbital Energies [Eh]
    ---------------------

    Doubly Occupied:                                                      

       1A    -25.151314     2A    -19.737434     3A    -19.653987  
       4A    -10.754805     5A    -10.638987     6A     -1.281856  
       7A     -1.198616     8A     -1.173025     9A     -0.852768  
      10A     -0.749733    11A     -0.677994    12A     -0.615734  
      13A     -0.594536    14A     -0.554411    15A     -0.529806  
      16A     -0.493278    17A     -0.477212    18A     -0.417478  
      19A     -0.413662    20A     -0.399792    21A     -0.380923  

    Virtual:                                                              

      22A     -0.018298    23A      0.001893    24A      0.009193  
      25A      0.016718    26A      0.021846    27A      0.026885  
      28A      0.048761    29A      0.065895    30A      0.068629  
      31A      0.087602    32A      0.093967    33A      0.110031  
      34A      0.114681    35A      0.123261    36A      0.137677  
      37A      0.167031    38A      0.175181    39A      0.184841  
      40A      0.186816    41A      0.211603    42A      0.226540  
      43A      0.255936    44A      0.265219    45A      0.267131  
      46A      0.287497    47A      0.313221    48A      0.313618  
      49A      0.332032    50A      0.340249    51A      0.377349  
      52A      0.390149    53A      0.398781    54A      0.424310  
      55A      0.447230    56A      0.463286    57A      0.476059  
      58A      0.506851    59A      0.562247    60A      0.585508  
      61A      0.620500    62A      0.635471    63A      0.649477  
      64A      0.692569    65A      0.709007    66A      0.723545  
      67A      0.899884    68A      0.971999    69A      0.991918  
      70A      1.025050    71A      1.043321    72A      1.112486  
      73A      1.131429    74A      1.166136    75A      1.193782  
      76A      1.217380    77A      1.335310    78A      1.355258  
      79A      1.389511    80A      1.440148    81A      1.465677  
      82A      1.492205    83A      1.512821    84A      1.548525  
      85A      1.552056    86A      1.570583    87A      1.585329  
      88A      1.622025    89A      1.665650    90A      1.690804  
      91A      1.712814    92A      1.734451    93A      1.777933  
      94A      1.853786    95A      1.891684    96A      1.977408  
      97A      2.029864    98A      2.080772    99A      2.101398  
     100A      2.137451   101A      2.213826   102A      2.402983  
     103A      2.428341   104A      2.497059   105A      2.498426  
     106A      2.534231   107A      2.549711   108A      2.652730  
     109A      2.678241   110A      2.736152   111A      2.816003  
     112A      2.856067   113A      2.933184   114A      2.957082  
     115A      3.095810   116A      3.130053   117A      3.235125  
     118A      3.289954   119A      3.389262   120A      3.496643  
     121A      3.685559   122A      3.782733   123A      3.802646  
     124A      3.904149   125A      3.956946   126A      3.987635  
     127A      3.995022   128A      4.004929   129A      4.053851  
     130A      4.081658   131A      4.258327   132A      5.142424  
     133A      5.152871   134A      5.225342   135A      5.258851  
     136A      5.589039   137A      5.686134   138A      6.561451  
     139A      6.584803   140A      6.622734   141A     23.763902  
     142A     23.935739   143A     49.916448   144A     50.029451  
     145A     66.992126  

    Final Occupation by Irrep:
              A 
    DOCC [    21 ]

  Energy converged.

  @DF-RKS Final Energy:  -329.34516097415866

   => Energetics <=

    Nuclear Repulsion Energy =            186.8221479799954352
    One-Electron Energy =                -822.8890405508858521
    Two-Electron Energy =                 326.0413309509780220
    DFT Exchange-Correlation Energy =     -19.3195993542462219
    Empirical Dispersion Energy =           0.0000000000000000
    VV10 Nonlocal Energy =                  0.0000000000000000
    Total Energy =                       -329.3451609741586594



Properties will be evaluated at   0.000000,   0.000000,   0.000000 [a0]

Properties computed using the SCF density matrix

  Nuclear Dipole Moment: [e a0]
     X:     4.3212      Y:     4.4405      Z:    -5.1532

  Electronic Dipole Moment: [e a0]
     X:    -2.9702      Y:    -3.2941      Z:     3.3721

  Dipole Moment: [e a0]
     X:     1.3510      Y:     1.1464      Z:    -1.7811     Total:     2.5123

  Dipole Moment: [D]
     X:     3.4338      Y:     2.9139      Z:    -4.5270     Total:     6.3856


*** tstop() called on localhost.localdomain at Thu Jan 17 12:18:09 2019
Module time:
	user time   =     130.66 seconds =       2.18 minutes
	system time =       1.94 seconds =       0.03 minutes
	total time  =          9 seconds =       0.15 minutes
Total time:
	user time   =     489.35 seconds =       8.16 minutes
	system time =      10.72 seconds =       0.18 minutes
	total time  =         35 seconds =       0.58 minutes

*** tstart() called on localhost.localdomain
*** at Thu Jan 17 12:18:09 2019


         ------------------------------------------------------------
                                   SCF GRAD                          
                          Rob Parrish, Justin Turney,                
                       Andy Simmonett, and Alex Sokolov              
         ------------------------------------------------------------

  ==> Geometry <==

    Molecular point group: c1
    Full point group: C1

    Geometry (in Angstrom), charge = 0, multiplicity = 1:

       Center              X                  Y                   Z               Mass       
    ------------   -----------------  -----------------  -----------------  -----------------
         C           -0.143508013264    -0.703465173688    -0.202595051185    12.000000000000
         O           -1.235098049361    -0.572998058190    -0.810816010388    15.994914619560
         O            0.148597712753     0.890169985173    -0.118473075832    15.994914619560
         H           -0.790401875907     0.723107980272    -0.751329225049     1.007825032070
         H            1.211252509339     2.491569821170    -0.810794614499     1.007825032070
         C            1.339570776978     1.413092222035    -0.721957946926    12.000000000000
         H            1.511632468979     0.971592149154    -1.707986506315     1.007825032070
         H            2.171462474712     1.194563459401    -0.054523517538     1.007825032070
         F           -0.081218495491    -0.917464116654     1.573693607525    18.998403224000
         H            0.429330075689    -1.568970598989    -0.583911780063     1.007825032070

  Nuclear repulsion =  186.822147979995435

  ==> Basis Set <==

  Basis Set: 6-311++G(D,P)
    Blend: 6-311++G(D,P)
    Number of shells: 75
    Number of basis function: 145
    Number of Cartesian functions: 150
    Spherical Harmonics?: true
    Max angular momentum: 2

  ==> DFJKGrad: Density-Fitted SCF Gradients <==

    Gradient:                    1
    J tasked:                  Yes
    K tasked:                  Yes
    wK tasked:                  No
    OpenMP threads:             16
    Integrals threads:          16
    Memory (MB):               375
    Schwarz Cutoff:          0E+00
    Fitting Condition:       1E-12

   => Auxiliary Basis Set <=

  Basis Set: (6-311++G(D,P) AUX)
    Blend: AUG-CC-PVTZ-JKFIT
    Number of shells: 220
    Number of basis function: 750
    Number of Cartesian functions: 930
    Spherical Harmonics?: true
    Max angular momentum: 4

  ==> DFT Potential <==

   => Composite Functional: M06-2X <= 

    Hybrid M06-2X Meta-GGA XC Functional

    Y. Zhao and D. G. Truhlar,  Theor. Chem. Acc., 120, 215, 2008


    Deriv               =              1
    GGA                 =           TRUE
    Meta                =           TRUE

    Exchange Hybrid     =           TRUE
    MP2 Hybrid          =          FALSE

   => Exchange Functionals <=

    1.0000   XC_HYB_MGGA_X_M06_2X

   => Exact (HF) Exchange <=

    0.5400               HF 

   => Correlation Functionals <=

    1.0000   XC_MGGA_C_M06_2X

   => Molecular Quadrature <=

    Radial Scheme       =       TREUTLER
    Pruning Scheme      =           FLAT
    Nuclear Scheme      =       TREUTLER

    BS radius alpha     =              1
    Pruning alpha       =              1
    Radial Points       =             75
    Spherical Points    =            302
    Total Points        =         226500
    Total Blocks        =           1751
    Max Points          =            256
    Max Functions       =            144


  -Total Gradient:
     Atom            X                  Y                   Z
    ------   -----------------  -----------------  -----------------
       1        0.043642842265     0.001295652068    -0.041527227140
       2       -0.011344181557     0.002459937633    -0.017856028133
       3       -0.002781683287     0.031384832935     0.018273007954
       4       -0.007761761664    -0.008684213684    -0.015182566638
       5        0.000205621994     0.001121346102    -0.000433663575
       6       -0.003701357250    -0.002400398861     0.000563826905
       7        0.001107368746    -0.000027887767    -0.001107958403
       8        0.000760604436    -0.000011153952     0.000209530728
       9        0.004050874497    -0.006182541911     0.075693598688
      10       -0.023985666213    -0.018994133437    -0.018476774118


*** tstop() called on localhost.localdomain at Thu Jan 17 12:18:12 2019
Module time:
	user time   =      40.78 seconds =       0.68 minutes
	system time =       1.83 seconds =       0.03 minutes
	total time  =          3 seconds =       0.05 minutes
Total time:
	user time   =     530.17 seconds =       8.84 minutes
	system time =      12.56 seconds =       0.21 minutes
	total time  =         38 seconds =       0.63 minutes

			-----------------------------------------
			 OPTKING 2.0: for geometry optimizations 
			  - R.A. King,  Bethel University        
			-----------------------------------------

	Previous internal coordinate definitions found.
	---Fragment 1 Geometry and Gradient---
	 C          -0.2711908429       -1.3293565223       -0.3828491626
	 O          -2.3339970606       -1.0828094047       -1.5322202038
	 O           0.2808089811        1.6821774837       -0.2238816674
	 H          -1.4936430804        1.3664760472       -1.4198064710
	 H           2.2889355204        4.7083846030       -1.5321797714
	 C           2.5314219041        2.6703573002       -1.3643027992
	 H           2.8565713799        1.8360430748       -3.2276267356
	 H           4.1034693850        2.2573977866       -0.1030345159
	 F          -0.1534807134       -1.7337559172        2.9738499353
	 H           0.8113162637       -2.9649247426       -1.1034333501
	             0.0436428423        0.0012956521       -0.0415272271
	            -0.0113441816        0.0024599376       -0.0178560281
	            -0.0027816833        0.0313848329        0.0182730080
	            -0.0077617617       -0.0086842137       -0.0151825666
	             0.0002056220        0.0011213461       -0.0004336636
	            -0.0037013572       -0.0024003989        0.0005638269
	             0.0011073687       -0.0000278878       -0.0011079584
	             0.0007606044       -0.0000111540        0.0002095307
	             0.0040508745       -0.0061825419        0.0756935987
	            -0.0239856662       -0.0189941334       -0.0184767741

	---Fragment 1 Intrafragment Coordinates---
	 - Coordinate -           - BOHR/RAD -       - ANG/DEG -
	 H(2,4)           =         2.591878	       1.371563
	 R(1,2)           =         2.374239	       1.256393
	 R(1,3)           =         3.065830	       1.622367
	 R(1,9)           =         3.383020	       1.790217
	 R(1,10)          =         2.089533	       1.105733
	 R(3,4)           =         2.163003	       1.144612
	 R(3,6)           =         2.709671	       1.433896
	 R(5,6)           =         2.059257	       1.089712
	 R(6,7)           =         2.067312	       1.093974
	 R(6,8)           =         2.057345	       1.088700
	 B(1,3,4)         =         1.245336	      71.352505
	 B(1,3,6)         =         2.078247	     119.074802
	 B(2,1,3)         =         1.650410	      94.561523
	 B(2,1,9)         =         2.121137	     121.532221
	 B(2,1,10)        =         1.943833	     111.373418
	 B(3,1,9)         =         1.630540	      93.423071
	 B(3,1,10)        =         2.337112	     133.906680
	 B(3,6,5)         =         1.872798	     107.303446
	 B(3,6,7)         =         1.942067	     111.272225
	 B(3,6,8)         =         1.879101	     107.664549
	 B(4,3,6)         =         2.096604	     120.126536
	 B(5,6,7)         =         1.922455	     110.148561
	 B(5,6,8)         =         1.916237	     109.792290
	 B(7,6,8)         =         1.929837	     110.571502
	 B(9,1,10)        =         1.803468	     103.331100
	 D(1,3,6,5)       =         2.862731	     164.022381
	 D(1,3,6,7)       =         0.758552	      43.461810
	 D(1,3,6,8)       =        -1.358756	     -77.850959
	 D(2,1,3,4)       =        -0.099506	      -5.701273
	 D(2,1,3,6)       =        -2.102054	    -120.438841
	 D(4,3,1,9)       =        -2.229315	    -127.730355
	 D(4,3,1,10)      =         2.095239	     120.048351
	 D(4,3,6,5)       =         1.392431	      79.780426
	 D(4,3,6,7)       =        -0.711748	     -40.780145
	 D(4,3,6,8)       =        -2.829055	    -162.092913
	 D(6,3,1,9)       =         2.051322	     117.532077
	 D(6,3,1,10)      =         0.092691	       5.310784

	Current energy   :      -329.3451609742

	Energy change for the previous step:
		Projected    :        -0.0238540527
		Actual       :        -0.0319247710

	Performing Bofill update.
	Previous computed or guess Hessian on step 1.
	Steps to be used in Hessian update: 2 1
	Taking PRFO optimization step.
	Maximizing along 1 lowest eigenvalue of Hessian.

 RFO min eigenvalues
 -0.087317 -0.000000 -0.000000 -0.000000 -0.000000 -0.000000 -0.000000  0.000000
  0.000000  0.000000  0.000000  0.000000  0.000000  0.000264  0.003271  0.032294
  0.036954  0.055163  0.069793  0.073416  0.089829  0.104302  0.118749  0.140701
  0.159968  0.159991  0.160073  0.194959  0.226209  0.261000  0.342199  0.347525
  0.347636  0.371472  0.400450  0.421143  0.642766

 RFO max eigenvalues
 -0.000000  0.000000
	Change in coordinate exceeds step limit of    0.50000.
	Scaling displacements by    0.37700
[...]
    Total Energy =                       -329.4103008153271617



Properties will be evaluated at   0.000000,   0.000000,   0.000000 [a0]

Properties computed using the SCF density matrix

  Nuclear Dipole Moment: [e a0]
     X:     5.1915      Y:     4.0741      Z:    -4.9170

  Electronic Dipole Moment: [e a0]
     X:    -3.6410      Y:    -3.2732      Z:     4.3029

  Dipole Moment: [e a0]
     X:     1.5505      Y:     0.8009      Z:    -0.6141     Total:     1.8500

  Dipole Moment: [D]
     X:     3.9410      Y:     2.0357      Z:    -1.5608     Total:     4.7023


*** tstop() called on localhost.localdomain at Thu Jan 17 12:22:45 2019
Module time:
	user time   =      90.69 seconds =       1.51 minutes
	system time =       2.12 seconds =       0.04 minutes
	total time  =          8 seconds =       0.13 minutes
Total time:
	user time   =    4059.47 seconds =      67.66 minutes
	system time =     122.88 seconds =       2.05 minutes
	total time  =        311 seconds =       5.18 minutes

*** tstart() called on localhost.localdomain
*** at Thu Jan 17 12:22:45 2019


         ------------------------------------------------------------
                                   SCF GRAD                          
                          Rob Parrish, Justin Turney,                
                       Andy Simmonett, and Alex Sokolov              
         ------------------------------------------------------------

  ==> Geometry <==

    Molecular point group: c1
    Full point group: C1

    Geometry (in Angstrom), charge = 0, multiplicity = 1:

       Center              X                  Y                   Z               Mass       
    ------------   -----------------  -----------------  -----------------  -----------------
         C           -0.108047614975    -0.645236287278     0.050653622385    12.000000000000
         O           -1.120282379357    -0.619960924724    -0.731156964596    15.994914619560
         O            0.225504235194     0.911683533582    -0.083939935327    15.994914619560
         H           -0.718435396744     0.657922409419    -0.701049957262     1.007825032070
         H            1.355439594890     2.315563620587    -1.044551650979     1.007825032070
         C            1.408542471208     1.254452358978    -0.810960003580    12.000000000000
         H            1.473574826710     0.670672552934    -1.733348938624     1.007825032070
         H            2.273372539821     1.062369399097    -0.177825262264     1.007825032070
         F           -0.343773984577    -0.817235337565     1.371280879685    18.998403224000
         H            0.812504521273    -1.184591854916    -0.204078075766     1.007825032070

  Nuclear repulsion =  197.533194881771919

  ==> Basis Set <==

  Basis Set: 6-311++G(D,P)
    Blend: 6-311++G(D,P)
    Number of shells: 75
    Number of basis function: 145
    Number of Cartesian functions: 150
    Spherical Harmonics?: true
    Max angular momentum: 2

  ==> DFJKGrad: Density-Fitted SCF Gradients <==

    Gradient:                    1
    J tasked:                  Yes
    K tasked:                  Yes
    wK tasked:                  No
    OpenMP threads:             16
    Integrals threads:          16
    Memory (MB):               375
    Schwarz Cutoff:          0E+00
    Fitting Condition:       1E-12

   => Auxiliary Basis Set <=

  Basis Set: (6-311++G(D,P) AUX)
    Blend: AUG-CC-PVTZ-JKFIT
    Number of shells: 220
    Number of basis function: 750
    Number of Cartesian functions: 930
    Spherical Harmonics?: true
    Max angular momentum: 4

  ==> DFT Potential <==

   => Composite Functional: M06-2X <= 

    Hybrid M06-2X Meta-GGA XC Functional

    Y. Zhao and D. G. Truhlar,  Theor. Chem. Acc., 120, 215, 2008


    Deriv               =              1
    GGA                 =           TRUE
    Meta                =           TRUE

    Exchange Hybrid     =           TRUE
    MP2 Hybrid          =          FALSE

   => Exchange Functionals <=

    1.0000   XC_HYB_MGGA_X_M06_2X

   => Exact (HF) Exchange <=

    0.5400               HF 

   => Correlation Functionals <=

    1.0000   XC_MGGA_C_M06_2X

   => Molecular Quadrature <=

    Radial Scheme       =       TREUTLER
    Pruning Scheme      =           FLAT
    Nuclear Scheme      =       TREUTLER

    BS radius alpha     =              1
    Pruning alpha       =              1
    Radial Points       =             75
    Spherical Points    =            302
    Total Points        =         226500
    Total Blocks        =           1757
    Max Points          =            256
    Max Functions       =            144


  -Total Gradient:
     Atom            X                  Y                   Z
    ------   -----------------  -----------------  -----------------
       1        0.000063637321     0.000115488123     0.000066165202
       2       -0.000014628840    -0.000003657083    -0.000028574413
       3       -0.000079992872    -0.000049640849     0.000035557889
       4        0.000003447329     0.000045219046     0.000012585597
       5        0.000006803797    -0.000013560271    -0.000010388617
       6        0.000069680637    -0.000019178717    -0.000053431119
       7       -0.000004008523    -0.000005934190    -0.000006436890
       8        0.000016470754     0.000000977212    -0.000020743734
       9        0.000005775279    -0.000013838549     0.000010559034
      10       -0.000015333455    -0.000018152237    -0.000026299088


*** tstop() called on localhost.localdomain at Thu Jan 17 12:22:49 2019
Module time:
	user time   =      46.49 seconds =       0.77 minutes
	system time =       2.10 seconds =       0.03 minutes
	total time  =          4 seconds =       0.07 minutes
Total time:
	user time   =    4105.98 seconds =      68.43 minutes
	system time =     124.98 seconds =       2.08 minutes
	total time  =        315 seconds =       5.25 minutes

			-----------------------------------------
			 OPTKING 2.0: for geometry optimizations 
			  - R.A. King,  Bethel University        
			-----------------------------------------

	Previous internal coordinate definitions found.
	---Fragment 1 Geometry and Gradient---
	 C          -0.2041804016       -1.2193198740        0.0957214739
	 O          -2.1170268885       -1.1715563608       -1.3816864232
	 O           0.4261412463        1.7228321983       -0.1586234894
	 H          -1.3576461440        1.2432931705       -1.3247924247
	 H           2.5614096240        4.3757810862       -1.9739165520
	 C           2.6617595171        2.3705714052       -1.5324923115
	 H           2.7846528588        1.2673874499       -3.2755547867
	 H           4.2960514983        2.0075872163       -0.3360410452
	 F          -0.6496386825       -1.5443509741        2.5913453139
	 H           1.5354110269       -2.2385541850       -0.3856516729
	             0.0000636373        0.0001154881        0.0000661652
	            -0.0000146288       -0.0000036571       -0.0000285744
	            -0.0000799929       -0.0000496408        0.0000355579
	             0.0000034473        0.0000452190        0.0000125856
	             0.0000068038       -0.0000135603       -0.0000103886
	             0.0000696806       -0.0000191787       -0.0000534311
	            -0.0000040085       -0.0000059342       -0.0000064369
	             0.0000164708        0.0000009772       -0.0000207437
	             0.0000057753       -0.0000138385        0.0000105590
	            -0.0000153335       -0.0000181522       -0.0000262991

	---Fragment 1 Intrafragment Coordinates---
	 - Coordinate -           - BOHR/RAD -       - ANG/DEG -
	 H(2,4)           =         2.532073	       1.339915
	 R(1,2)           =         2.417436	       1.279252
	 R(1,3)           =         3.019645	       1.597927
	 R(1,9)           =         2.555820	       1.352482
	 R(1,10)          =         2.072857	       1.096909
	 R(3,4)           =         2.184446	       1.155959
	 R(3,6)           =         2.702789	       1.430255
	 R(5,6)           =         2.055673	       1.087815
	 R(6,7)           =         2.066491	       1.093540
	 R(6,8)           =         2.057708	       1.088892
	 B(1,3,4)         =         1.224540	      70.160975
	 B(1,3,6)         =         2.036421	     116.678325
	 B(2,1,3)         =         1.665380	      95.419222
	 B(2,1,9)         =         2.050316	     117.474464
	 B(2,1,10)        =         2.131573	     122.130117
	 B(3,1,9)         =         1.815777	     104.036339
	 B(3,1,10)        =         1.859121	     106.519765
	 B(3,6,5)         =         1.878160	     107.610660
	 B(3,6,7)         =         1.928378	     110.487917
	 B(3,6,8)         =         1.895590	     108.609326
	 B(4,3,6)         =         2.045063	     117.173487
	 B(5,6,7)         =         1.920390	     110.030229
	 B(5,6,8)         =         1.913145	     109.615115
	 B(7,6,8)         =         1.927345	     110.428711
	 B(9,1,10)        =         1.886511	     108.089096
	 D(1,3,6,5)       =         2.879036	     164.956622
	 D(1,3,6,7)       =         0.782068	      44.809206
	 D(1,3,6,8)       =        -1.334385	     -76.454641
	 D(2,1,3,4)       =         0.030406	       1.742157
	 D(2,1,3,6)       =        -1.910863	    -109.484376
	 D(4,3,1,9)       =        -2.065611	    -118.350781
	 D(4,3,1,10)      =         2.226538	     127.571257
	 D(4,3,6,5)       =         1.478047	      84.685856
	 D(4,3,6,7)       =        -0.618921	     -35.461559
	 D(4,3,6,8)       =        -2.735374	    -156.725407
	 D(6,3,1,9)       =         2.276305	     130.422687
	 D(6,3,1,10)      =         0.285269	      16.344725

	Current energy   :      -329.4103008153

	Energy change for the previous step:
		Projected    :        -0.0000001527
		Actual       :        -0.0000000427

	Performing Bofill update.
	Previous computed or guess Hessian on step 1.
	Steps to be used in Hessian update: 21 20
	Taking PRFO optimization step.
	Maximizing along 1 lowest eigenvalue of Hessian.

 RFO min eigenvalues
 -0.000001 -0.000000 -0.000000 -0.000000 -0.000000 -0.000000 -0.000000 -0.000000
  0.000000  0.000000  0.000000  0.000000  0.000000  0.000000  0.000785  0.002868
  0.054254  0.070144  0.072849  0.075282  0.114072  0.141949  0.153213  0.160146
  0.160988  0.162947  0.198439  0.274705  0.321508  0.342233  0.347483  0.347945
  0.350418  0.399831  0.404530  0.421648  0.713097

 RFO max eigenvalues
 -0.067327  0.000000
	|RFO target step|  :        0.0265120033
	RFO gradient       :       -0.0000295126
	RFO hessian        :        0.0011123925
	Projected Delta(E) :       -0.0000003912

	Back-transformation to cartesian coordinates...
	Could not converge backtransformation.
	Using first guess instead.

	--- Internal Coordinate Step in ANG or DEG, aJ/ANG or AJ/DEG ---
	 ---------------------------------------------------------------------------
	   Coordinate                Previous        Force       Change         New 
	   ----------                --------       ------       ------       ------
	    1 H(2,4)          =      1.339915    -0.000075    -0.000929     1.338986
	    2 R(1,2)          =      1.279252    -0.000250    -0.000018     1.279234
	    3 R(1,3)          =      1.597927     0.000459     0.000319     1.598246
	    4 R(1,9)          =      1.352482    -0.000067    -0.000104     1.352378
	    5 R(1,10)         =      1.096909    -0.000055     0.000056     1.096965
	    6 R(3,4)          =      1.155959     0.000028    -0.000217     1.155743
	    7 R(3,6)          =      1.430255    -0.000519    -0.000431     1.429823
	    8 R(5,6)          =      1.087815     0.000079     0.000046     1.087862
	    9 R(6,7)          =      1.093540     0.000027    -0.000006     1.093534
	   10 R(6,8)          =      1.088892     0.000003    -0.000030     1.088862
	   11 B(1,3,4)        =     70.160975    -0.000002    -0.014976    70.145998
	   12 B(1,3,6)        =    116.678325     0.000005     0.233003   116.911327
	   13 B(2,1,3)        =     95.419222    -0.000000    -0.041310    95.377912
	   14 B(2,1,9)        =    117.474464     0.000000     0.037424   117.511888
	   15 B(2,1,10)       =    122.130117     0.000003     0.072371   122.202488
	   16 B(3,1,9)        =    104.036339    -0.000005     0.004278   104.040618
	   17 B(3,1,10)       =    106.519765    -0.000002    -0.061479   106.458286
	   18 B(3,6,5)        =    107.610660     0.000001     0.025443   107.636103
	   19 B(3,6,7)        =    110.487917     0.000000     0.026705   110.514622
	   20 B(3,6,8)        =    108.609326    -0.000001    -0.044818   108.564508
	   21 B(4,3,6)        =    117.173487     0.000001     0.373809   117.547296
	   22 B(5,6,7)        =    110.030229    -0.000000    -0.003753   110.026475
	   23 B(5,6,8)        =    109.615115     0.000000    -0.000963   109.614152
	   24 B(7,6,8)        =    110.428711     0.000000    -0.002542   110.426169
	   25 B(9,1,10)       =    108.089096     0.000001    -0.039746   108.049350
	   26 D(1,3,6,5)      =    164.956622     0.000000     0.133868   165.090489
	   27 D(1,3,6,7)      =     44.809206     0.000000     0.107122    44.916329
	   28 D(1,3,6,8)      =    -76.454641     0.000000     0.122447   -76.332195
	   29 D(2,1,3,4)      =      1.742157    -0.000000    -0.362431     1.379725
	   30 D(2,1,3,6)      =   -109.484376    -0.000000    -0.736972  -110.221348
	   31 D(4,3,1,9)      =   -118.350781    -0.000000    -0.389047  -118.739828
	   32 D(4,3,1,10)     =    127.571257     0.000000    -0.321481   127.249777
	   33 D(4,3,6,5)      =     84.685856     0.000000    -0.109204    84.576652
	   34 D(4,3,6,7)      =    -35.461559     0.000000    -0.135949   -35.597509
	   35 D(4,3,6,8)      =   -156.725407     0.000000    -0.120625  -156.846032
	   36 D(6,3,1,9)      =    130.422687    -0.000000    -0.763588   129.659099
	   37 D(6,3,1,10)     =     16.344725     0.000000    -0.696021    15.648703
	 ---------------------------------------------------------------------------
	Successfully symmetrized geometry.

  ==> Convergence Check <==

  Measures of convergence in internal coordinates in au.
  Criteria marked as inactive (o), active & met (*), and active & unmet ( ).
  ---------------------------------------------------------------------------------------------
   Step     Total Energy     Delta E     MAX Force     RMS Force      MAX Disp      RMS Disp   
  ---------------------------------------------------------------------------------------------
    Convergence Criteria    1.00e-06 *    3.00e-04 *             o    1.20e-03 *             o
  ---------------------------------------------------------------------------------------------
     22    -329.41030082   -4.27e-08 *    6.98e-05 *    2.44e-05 o    1.33e-02      4.36e-03 o  ~
  ---------------------------------------------------------------------------------------------


  **** Optimization is complete! (in 22 steps) ****

  ==> Optimization Summary <==

  Measures of convergence in internal coordinates in au.
  --------------------------------------------------------------------------------------------------------------- ~
   Step         Total Energy             Delta E       MAX Force       RMS Force        MAX Disp        RMS Disp  ~
  --------------------------------------------------------------------------------------------------------------- ~
      1    -329.266579026933   -329.266579026933      0.13828603      0.03343802      0.33935635      0.07811050  ~
      2    -329.313236203144     -0.046657176211      0.07525658      0.01797035      0.20832930      0.05529425  ~
      3    -329.345160974159     -0.031924771015      0.07598451      0.01616395      0.27268788      0.05678218  ~
      4    -329.375530087605     -0.030369113446      0.07082118      0.01389648      0.32783329      0.06264981  ~
      5    -329.401323377568     -0.025793289963      0.04222529      0.00888477      0.33767948      0.07247149  ~
      6    -329.407846966519     -0.006523588951      0.04730522      0.00882406      0.16771490      0.04416797  ~
      7    -329.411936685646     -0.004089719128      0.02219987      0.00646891      0.24159358      0.07938363  ~
      8    -329.406276869551      0.005659816096      0.03047706      0.00835636      0.18768768      0.08189610  ~
      9    -329.408090454125     -0.001813584574      0.03074968      0.00822220      0.19876842      0.08179248  ~
     10    -329.410075493014     -0.001985038889      0.03438711      0.00875389      0.30330688      0.08189251  ~
     11    -329.408424459455      0.001651033559      0.01144336      0.00445493      0.18359263      0.08232017  ~
     12    -329.408924703656     -0.000500244201      0.01285795      0.00436394      0.20753783      0.06975669  ~
     13    -329.408200913100      0.000723790556      0.01298648      0.00535827      0.16956380      0.04868670  ~
     14    -329.410034653130     -0.001833740030      0.01250839      0.00280401      0.19994968      0.08143854  ~
     15    -329.409585498661      0.000449154469      0.00886816      0.00382442      0.12700997      0.04927656  ~
     16    -329.410164774571     -0.000579275910      0.00709530      0.00176500      0.20061051      0.08217247  ~
     17    -329.410045012311      0.000119762260      0.00943927      0.00284704      0.11378932      0.04748984  ~
     18    -329.410270128986     -0.000225116675      0.00225080      0.00076604      0.02665638      0.01138404  ~
     19    -329.410293762308     -0.000023633322      0.00103775      0.00024994      0.02999055      0.01130998  ~
     20    -329.410299644598     -0.000005882290      0.00013898      0.00007084      0.01087896      0.00400494  ~
     21    -329.410300772595     -0.000001127997      0.00013475      0.00004306      0.00177043      0.00053731  ~
     22    -329.410300815327     -0.000000042732      0.00006983      0.00002437      0.01332713      0.00436254  ~
  --------------------------------------------------------------------------------------------------------------- ~

	Writing optimization data to binary file.
	Final energy is   -329.4103008153272
	Final (previous) structure:
	Cartesian Geometry (in Angstrom)
	    C    -0.1080476150  -0.6452362873   0.0506536224
	    O    -1.1202823794  -0.6199609247  -0.7311569646
	    O     0.2255042352   0.9116835336  -0.0839399353
	    H    -0.7184353967   0.6579224094  -0.7010499573
	    H     1.3554395949   2.3155636206  -1.0445516510
	    C     1.4085424712   1.2544523590  -0.8109600036
	    H     1.4735748267   0.6706725529  -1.7333489386
	    H     2.2733725398   1.0623693991  -0.1778252623
	    F    -0.3437739846  -0.8172353376   1.3712808797
	    H     0.8125045213  -1.1845918549  -0.2040780758
	Saving final (previous) structure.
	Removing binary optimization data file.
			--------------------------
			 OPTKING Finished Execution 
			--------------------------

    Final optimized geometry and variables:
    Molecular point group: c1
    Full point group: C1

    Geometry (in Angstrom), charge = 0, multiplicity = 1:

    C           -0.108047614975    -0.645236287278     0.050653622385
    O           -1.120282379357    -0.619960924724    -0.731156964596
    O            0.225504235194     0.911683533582    -0.083939935327
    H           -0.718435396744     0.657922409419    -0.701049957262
    H            1.355439594890     2.315563620587    -1.044551650979
    C            1.408542471208     1.254452358978    -0.810960003580
    H            1.473574826710     0.670672552934    -1.733348938624
    H            2.273372539821     1.062369399097    -0.177825262264
    F           -0.343773984577    -0.817235337565     1.371280879685
    H            0.812504521273    -1.184591854916    -0.204078075766

	Removing binary optimization data file.
	Cleaning optimization helper files.

    Psi4 stopped on: Thursday, 17 January 2019 12:22PM
    Psi4 wall time for execution: 0:05:14.57

*** Psi4 exiting successfully. Buy a developer a beer!
