
    -----------------------------------------------------------------------
          Psi4: An Open-Source Ab Initio Electronic Structure Package
                               Psi4 1.2.1 release

                         Git: Rev {HEAD} 406f4de 


    R. M. Parrish, L. A. Burns, D. G. A. Smith, A. C. Simmonett,
    A. E. DePrince III, E. G. Hohenstein, U. Bozkaya, A. Yu. Sokolov,
    R. Di Remigio, R. M. Richard, J. F. Gonthier, A. M. James,
    H. R. McAlexander, A. Kumar, M. Saitow, X. Wang, B. P. Pritchard,
    P. Verma, H. F. Schaefer III, K. Patkowski, R. A. King, E. F. Valeev,
    F. A. Evangelista, J. M. Turney, T. D. Crawford, and C. D. Sherrill,
    J. Chem. Theory Comput. 13(7) pp 3185--3197 (2017).
    (doi: 10.1021/acs.jctc.7b00174)


                         Additional Contributions by
    P. Kraus, H. Kruse, M. H. Lechner, M. C. Schieber, and R. A. Shaw

    -----------------------------------------------------------------------


    Psi4 started on: Thursday, 17 January 2019 09:57AM

    Process ID: 7642
    Host:       localhost.localdomain
    PSIDATADIR: /root/psi4conda/share/psi4
    Memory:     500.0 MiB
    Threads:    1
    
  ==> Input File <==

--------------------------------------------------------------------------
molecule{
0 1
  Si    1.66643900    1.31319600    0.00668800 
   F   -1.17922200   -0.10495100   -0.00196400 
   H    1.00074300    2.03751600   -1.08158600 
   H    1.33992400    1.57034100    1.41243900 
   H    3.12017000    1.30553300   -0.24009800 
   H    0.79805500   -0.86176300    0.03466400 
   C    1.98403200   -0.96875300    0.00369100 
   N    3.00079100   -1.58020600   -0.01958600 
}

set{
   basis 6-31G(d)
   freeze_core True
   opt_type ts
}


set_num_threads(32)
optimize('m06-2x')
--------------------------------------------------------------------------
  Threads set to 32 by Python driver.
gradient() will perform analytic gradient computation.

*** tstart() called on localhost.localdomain
*** at Thu Jan 17 09:57:49 2019

   => Loading Basis Set <=

    Name: 6-31G(D)
    Role: ORBITAL
    Keyword: BASIS
    atoms 1   entry SI         line   268 file /root/psi4conda/share/psi4/basis/6-31g_d_.gbs 
    atoms 2   entry F          line   162 file /root/psi4conda/share/psi4/basis/6-31g_d_.gbs 
    atoms 3-6 entry H          line    44 file /root/psi4conda/share/psi4/basis/6-31g_d_.gbs 
    atoms 7   entry C          line   111 file /root/psi4conda/share/psi4/basis/6-31g_d_.gbs 
    atoms 8   entry N          line   128 file /root/psi4conda/share/psi4/basis/6-31g_d_.gbs 


         ---------------------------------------------------------
                                   SCF
            by Justin Turney, Rob Parrish, Andy Simmonett
                             and Daniel Smith
                              RKS Reference
                       32 Threads,    500 MiB Core
         ---------------------------------------------------------

  ==> Geometry <==

    Molecular point group: c1
    Full point group: C1

    Geometry (in Angstrom), charge = 0, multiplicity = 1:

       Center              X                  Y                   Z               Mass       
    ------------   -----------------  -----------------  -----------------  -----------------
         SI           0.415232307374     1.247284304564     0.006087750699    27.976926532460
         F           -2.430428692626    -0.170862695436    -0.002564249301    18.998403224000
         H           -0.250463692626     1.971604304564    -1.082186249301     1.007825032070
         H            0.088717307374     1.504429304564     1.411838750699     1.007825032070
         H            1.868963307374     1.239621304564    -0.240698249301     1.007825032070
         H           -0.453151692626    -0.927674695436     0.034063750699     1.007825032070
         C            0.732825307374    -1.034664695436     0.003090750699    12.000000000000
         N            1.749584307374    -1.646117695436    -0.020186249301    14.003074004780

  Running in c1 symmetry.

  Rotational constants: A =      0.17095  B =      0.09286  C =      0.06161 [cm^-1]
  Rotational constants: A =   5124.88477  B =   2783.91690  C =   1846.87995 [MHz]
  Nuclear repulsion =  127.792733660659820

  Charge       = 0
  Multiplicity = 1
  Electrons    = 40
  Nalpha       = 20
  Nbeta        = 20

  ==> Algorithm <==

  SCF Algorithm Type is DF.
  DIIS enabled.
  MOM disabled.
  Fractional occupation disabled.
  Guess Type is SAD.
  Energy threshold   = 1.00e-08
  Density threshold  = 1.00e-08
  Integral threshold = 0.00e+00

  ==> Primary Basis <==

  Basis Set: 6-31G(D)
    Blend: 6-31G(D)
    Number of shells: 34
    Number of basis function: 72
    Number of Cartesian functions: 72
    Spherical Harmonics?: false
    Max angular momentum: 2

  ==> DFT Potential <==

   => Composite Functional: M06-2X <= 

    Hybrid M06-2X Meta-GGA XC Functional

    Y. Zhao and D. G. Truhlar,  Theor. Chem. Acc., 120, 215, 2008


    Deriv               =              1
    GGA                 =           TRUE
    Meta                =           TRUE

    Exchange Hybrid     =           TRUE
    MP2 Hybrid          =          FALSE

   => Exchange Functionals <=

    1.0000   XC_HYB_MGGA_X_M06_2X

   => Exact (HF) Exchange <=

    0.5400               HF 

   => Correlation Functionals <=

    1.0000   XC_MGGA_C_M06_2X

   => Molecular Quadrature <=

    Radial Scheme       =       TREUTLER
    Pruning Scheme      =           FLAT
    Nuclear Scheme      =       TREUTLER

    BS radius alpha     =              1
    Pruning alpha       =              1
    Radial Points       =             75
    Spherical Points    =            302
    Total Points        =         179700
    Total Blocks        =           1392
    Max Points          =            256
    Max Functions       =             70

   => Loading Basis Set <=

    Name: (6-31G(D) AUX)
    Role: JKFIT
    Keyword: DF_BASIS_SCF
    atoms 1   entry SI         line   445 file /root/psi4conda/share/psi4/basis/cc-pvdz-jkfit.gbs 
    atoms 2   entry F          line   271 file /root/psi4conda/share/psi4/basis/cc-pvdz-jkfit.gbs 
    atoms 3-6 entry H          line    51 file /root/psi4conda/share/psi4/basis/cc-pvdz-jkfit.gbs 
    atoms 7   entry C          line   121 file /root/psi4conda/share/psi4/basis/cc-pvdz-jkfit.gbs 
    atoms 8   entry N          line   171 file /root/psi4conda/share/psi4/basis/cc-pvdz-jkfit.gbs 

  ==> Pre-Iterations <==

   -------------------------------------------------------
    Irrep   Nso     Nmo     Nalpha   Nbeta   Ndocc  Nsocc
   -------------------------------------------------------
     A         72      72       0       0       0       0
   -------------------------------------------------------
    Total      72      72      20      20      20       0
   -------------------------------------------------------

  ==> Integral Setup <==

  ==> DiskDFJK: Density-Fitted J/K Matrices <==

    J tasked:                  Yes
    K tasked:                  Yes
    wK tasked:                  No
    OpenMP threads:             32
    Integrals threads:          32
    Memory (MB):               375
    Algorithm:                Core
    Integral Cache:           NONE
    Schwarz Cutoff:          1E-12
    Fitting Condition:       1E-12

   => Auxiliary Basis Set <=

  Basis Set: (6-31G(D) AUX)
    Blend: CC-PVDZ-JKFIT
    Number of shells: 144
    Number of basis function: 473
    Number of Cartesian functions: 473
    Spherical Harmonics?: false
    Max angular momentum: 3

  Minimum eigenvalue in the overlap matrix is 4.0475313068E-03.
  Using Symmetric Orthogonalization.

  SCF Guess: Superposition of Atomic Densities via on-the-fly atomic UHF.

  ==> Iterations <==

                           Total Energy        Delta E     RMS |[F,P]|

   @DF-RKS iter   0:  -484.54703699544712   -4.84547e+02   9.96027e-02 
   @DF-RKS iter   1:  -484.07959392958969    4.67443e-01   3.27923e-02 
   @DF-RKS iter   2:  -476.43687482011234    7.64272e+00   1.03167e-01 DIIS
   @DF-RKS iter   3:  -484.17079612429939   -7.73392e+00   1.89375e-02 DIIS
   @DF-RKS iter   4:  -484.19969000623524   -2.88939e-02   1.78019e-02 DIIS
   @DF-RKS iter   5:  -484.23679802927052   -3.71080e-02   2.21517e-03 DIIS
   @DF-RKS iter   6:  -484.23777488400231   -9.76855e-04   1.75991e-03 DIIS
   @DF-RKS iter   7:  -484.23799083058066   -2.15947e-04   2.28708e-04 DIIS
   @DF-RKS iter   8:  -484.23800490158141   -1.40710e-05   3.77569e-05 DIIS
   @DF-RKS iter   9:  -484.23800613238302   -1.23080e-06   1.28813e-05 DIIS
   @DF-RKS iter  10:  -484.23800630189987   -1.69517e-07   1.00816e-05 DIIS
   @DF-RKS iter  11:  -484.23800635465847   -5.27586e-08   4.78063e-06 DIIS
   @DF-RKS iter  12:  -484.23800638125692   -2.65985e-08   1.23486e-06 DIIS
   @DF-RKS iter  13:  -484.23800638772707   -6.47015e-09   5.20366e-07 DIIS
   @DF-RKS iter  14:  -484.23800638848235   -7.55279e-10   1.52143e-07 DIIS
   @DF-RKS iter  15:  -484.23800638855039   -6.80416e-11   9.31892e-08 DIIS
   @DF-RKS iter  16:  -484.23800638856557   -1.51772e-11   4.55733e-08 DIIS
   @DF-RKS iter  17:  -484.23800638856784   -2.27374e-12   8.80556e-09 DIIS

  ==> Post-Iterations <==

    Orbital Energies [Eh]
    ---------------------

    Doubly Occupied:                                                      

       1A    -67.146150     2A    -25.038131     3A    -14.870567  
       4A    -10.663150     5A     -5.679114     6A     -3.991466  
       7A     -3.985524     8A     -3.985246     9A     -1.079549  
      10A     -1.056802    11A     -0.739657    12A     -0.657862  
      13A     -0.523303    14A     -0.508114    15A     -0.504084  
      16A     -0.473040    17A     -0.456612    18A     -0.291684  
      19A     -0.290736    20A     -0.280093  

    Virtual:                                                              

      21A     -0.144318    22A     -0.020832    23A     -0.003931  
      24A      0.032140    25A      0.087030    26A      0.100934  
      27A      0.156093    28A      0.184081    29A      0.211745  
      30A      0.231326    31A      0.260084    32A      0.348671  
      33A      0.496574    34A      0.532619    35A      0.591730  
      36A      0.616250    37A      0.636510    38A      0.643191  
      39A      0.653459    40A      0.723400    41A      0.757980  
      42A      0.795476    43A      0.855250    44A      0.912448  
      45A      0.947205    46A      1.139687    47A      1.156183  
      48A      1.198051    49A      1.286437    50A      1.363871  
      51A      1.438648    52A      1.505630    53A      1.518780  
      54A      1.519336    55A      1.554183    56A      1.642107  
      57A      1.700742    58A      1.917842    59A      1.957859  
      60A      2.092238    61A      2.093703    62A      2.097397  
      63A      2.099352    64A      2.154744    65A      2.335603  
      66A      2.514775    67A      2.603612    68A      2.828718  
      69A      2.849989    70A      3.683035    71A      3.763235  
      72A      4.141593  

    Final Occupation by Irrep:
              A 
    DOCC [    20 ]

  Energy converged.

  @DF-RKS Final Energy:  -484.23800638856784

   => Energetics <=

    Nuclear Repulsion Energy =            127.7927336606598203
    One-Electron Energy =                -922.0430977266339596
    Two-Electron Energy =                 331.4525646868543731
    DFT Exchange-Correlation Energy =     -21.4402070094480273
    Empirical Dispersion Energy =           0.0000000000000000
    VV10 Nonlocal Energy =                  0.0000000000000000
    Total Energy =                       -484.2380063885678396



Properties will be evaluated at   0.000000,   0.000000,   0.000000 [a0]

Properties computed using the SCF density matrix

  Nuclear Dipole Moment: [e a0]
     X:     3.4724      Y:     3.7443      Z:     0.1179

  Electronic Dipole Moment: [e a0]
     X:    -1.0559      Y:    -2.3547      Z:    -0.1013

  Dipole Moment: [e a0]
     X:     2.4165      Y:     1.3896      Z:     0.0167     Total:     2.7876

  Dipole Moment: [D]
     X:     6.1420      Y:     3.5320      Z:     0.0423     Total:     7.0853


*** tstop() called on localhost.localdomain at Thu Jan 17 09:57:54 2019
Module time:
	user time   =     101.87 seconds =       1.70 minutes
	system time =       6.23 seconds =       0.10 minutes
	total time  =          5 seconds =       0.08 minutes
Total time:
	user time   =     101.87 seconds =       1.70 minutes
	system time =       6.23 seconds =       0.10 minutes
	total time  =          5 seconds =       0.08 minutes

*** tstart() called on localhost.localdomain
*** at Thu Jan 17 09:57:54 2019


         ------------------------------------------------------------
                                   SCF GRAD                          
                          Rob Parrish, Justin Turney,                
                       Andy Simmonett, and Alex Sokolov              
         ------------------------------------------------------------

  ==> Geometry <==

    Molecular point group: c1
    Full point group: C1

    Geometry (in Angstrom), charge = 0, multiplicity = 1:

       Center              X                  Y                   Z               Mass       
    ------------   -----------------  -----------------  -----------------  -----------------
         SI           0.415232307374     1.247284304564     0.006087750699    27.976926532460
         F           -2.430428692626    -0.170862695436    -0.002564249301    18.998403224000
         H           -0.250463692626     1.971604304564    -1.082186249301     1.007825032070
         H            0.088717307374     1.504429304564     1.411838750699     1.007825032070
         H            1.868963307374     1.239621304564    -0.240698249301     1.007825032070
         H           -0.453151692626    -0.927674695436     0.034063750699     1.007825032070
         C            0.732825307374    -1.034664695436     0.003090750699    12.000000000000
         N            1.749584307374    -1.646117695436    -0.020186249301    14.003074004780

  Nuclear repulsion =  127.792733660659820

  ==> Basis Set <==

  Basis Set: 6-31G(D)
    Blend: 6-31G(D)
    Number of shells: 34
    Number of basis function: 72
    Number of Cartesian functions: 72
    Spherical Harmonics?: false
    Max angular momentum: 2

  ==> DFJKGrad: Density-Fitted SCF Gradients <==

    Gradient:                    1
    J tasked:                  Yes
    K tasked:                  Yes
    wK tasked:                  No
    OpenMP threads:             32
    Integrals threads:          32
    Memory (MB):               375
    Schwarz Cutoff:          0E+00
    Fitting Condition:       1E-12

   => Auxiliary Basis Set <=

  Basis Set: (6-31G(D) AUX)
    Blend: CC-PVDZ-JKFIT
    Number of shells: 144
    Number of basis function: 473
    Number of Cartesian functions: 473
    Spherical Harmonics?: false
    Max angular momentum: 3

  ==> DFT Potential <==

   => Composite Functional: M06-2X <= 

    Hybrid M06-2X Meta-GGA XC Functional

    Y. Zhao and D. G. Truhlar,  Theor. Chem. Acc., 120, 215, 2008


    Deriv               =              1
    GGA                 =           TRUE
    Meta                =           TRUE

    Exchange Hybrid     =           TRUE
    MP2 Hybrid          =          FALSE

   => Exchange Functionals <=

    1.0000   XC_HYB_MGGA_X_M06_2X

   => Exact (HF) Exchange <=

    0.5400               HF 

   => Correlation Functionals <=

    1.0000   XC_MGGA_C_M06_2X

   => Molecular Quadrature <=

    Radial Scheme       =       TREUTLER
    Pruning Scheme      =           FLAT
    Nuclear Scheme      =       TREUTLER

    BS radius alpha     =              1
    Pruning alpha       =              1
    Radial Points       =             75
    Spherical Points    =            302
    Total Points        =         179700
    Total Blocks        =           1392
    Max Points          =            256
    Max Functions       =             70


  -Total Gradient:
     Atom            X                  Y                   Z
    ------   -----------------  -----------------  -----------------
       1       -0.000068244374    -0.001820835904    -0.000689628609
       2       -0.055112142447     0.001034374213    -0.000582507582
       3        0.005757616089     0.006935374104    -0.000562680559
       4        0.003852281121     0.004012387573     0.001407587495
       5        0.001351763332    -0.001995545707    -0.000644696684
       6        0.003866128338    -0.001897294738     0.001183815775
       7       -0.006241323112     0.026083684575     0.001191033842
       8        0.046510723572    -0.032578547009    -0.001331591172


*** tstop() called on localhost.localdomain at Thu Jan 17 09:57:56 2019
Module time:
	user time   =      45.66 seconds =       0.76 minutes
	system time =       3.73 seconds =       0.06 minutes
	total time  =          2 seconds =       0.03 minutes
Total time:
	user time   =     147.78 seconds =       2.46 minutes
	system time =       9.98 seconds =       0.17 minutes
	total time  =          7 seconds =       0.12 minutes

			-----------------------------------------
			 OPTKING 2.0: for geometry optimizations 
			  - R.A. King,  Bethel University        
			-----------------------------------------

	Internal coordinates to be generated automatically.
	Detected frag 1 with atoms:  1 3 4 5 6 7 8
	Detected frag 2 with atoms:  2
	Unifying fragments since fragment_mode == SINGLE
	Increasing scaling to  2.200 to connect fragments.
	Increasing scaling to  2.600 to connect fragments.
	Connecting fragments 1 and 2
	---Fragment 1 Bond Connectivity---
	 1 : 3 4 5 7
	 2 : 6
	 3 : 1
	 4 : 1
	 5 : 1
	 6 : 2 7
	 7 : 1 6 8
	 8 : 7

	---Fragment 1 Geometry and Gradient---
	 SI          0.7846753425        2.3570257455        0.0115041816
	 F          -4.5928446146       -0.3228837007       -0.0048457289
	 H          -0.4733077853        3.7257921780       -2.0450356360
	 H           0.1676514142        2.8429593719        2.6679885826
	 H           3.5318288033        2.3425447741       -0.4548537718
	 H          -0.8563325957       -1.7530511148        0.0643711599
	 C           1.3848391342       -1.9552329137        0.0058406724
	 N           3.3062351873       -3.1107116269       -0.0381464828
	            -0.0000682444       -0.0018208359       -0.0006896286
	            -0.0551121424        0.0010343742       -0.0005825076
	             0.0057576161        0.0069353741       -0.0005626806
	             0.0038522811        0.0040123876        0.0014075875
	             0.0013517633       -0.0019955457       -0.0006446967
	             0.0038661283       -0.0018972947        0.0011838158
	            -0.0062413231        0.0260836846        0.0011910338
	             0.0465107236       -0.0325785470       -0.0013315912

	Previous optimization step data not found.  Starting new optimization.

	---Fragment 1 Intrafragment Coordinates---
	 - Coordinate -           - BOHR/RAD -       - ANG/DEG -
	 R(1,3)           =         2.772255	       1.467014
	 R(1,4)           =         2.770155	       1.465903
	 R(1,5)           =         2.786494	       1.474549
	 R(1,7)           =         4.353826	       2.303946
	 R(2,6)           =         4.001461	       2.117482
	 R(6,7)           =         2.251034	       1.191196
	 R(7,8)           =         2.242505	       1.186683
	 B(1,7,6)         =         1.342583	      76.924365
	 B(1,7,8)         =         2.250390	     128.937875
	 B(2,6,7)         =         2.862652	     164.017890
	 B(3,1,4)         =         2.121990	     121.581085
	 B(3,1,5)         =         1.902633	     109.012843
	 B(3,1,7)         =         2.153892	     123.408907
	 B(4,1,5)         =         1.961677	     112.395811
	 B(4,1,7)         =         1.777969	     101.870143
	 B(5,1,7)         =         1.429056	      81.878879
	 B(6,7,8)         =         2.690207	     154.137513
	 D(1,7,6,2)       =         0.149568	       8.569596
	 D(2,6,7,8)       =        -2.995993	    -171.657769
	 D(3,1,7,6)       =        -1.122710	     -64.326542
	 D(3,1,7,8)       =         2.021108	     115.800966
	 D(4,1,7,6)       =         1.342304	      76.908349
	 D(4,1,7,8)       =        -1.797063	    -102.964143
	 D(5,1,7,6)       =       

  ==> Adding ECP gradient terms (computed numerically) <==

  -ECP Gradient:
     Atom            X                  Y                   Z
    ------   -----------------  -----------------  -----------------
       1        0.004006367463     0.001015326756    -0.000028244180
       2        0.001265150473    -0.003372696747     0.000221599000
       3       -0.000463365808    -0.000451278167     0.000243242215
       4       -0.000277612363    -0.000160955604    -0.000159289092
       5        0.000028117875     0.000008832686    -0.000001915013
       6       -0.003394055899     0.003008657015    -0.000366352720
       7       -0.001183199535    -0.000041979167     0.000090899756
       8        0.000018597888    -0.000005908204     0.000000060834


  -Total Gradient:
     Atom            X                  Y                   Z
    ------   -----------------  -----------------  -----------------
       1        0.001983580389     0.000853535007     0.000056406050
       2       -0.009823685113    -0.001868752004     0.000065983217
       3       -0.000100250122     0.002030553916    -0.001695956058
       4       -0.000031997017     0.001113530318     0.002165814938
       5        0.002487222922    -0.000950373606    -0.000361289607
       6        0.005730628691    -0.001335638075     0.000016652732
       7       -0.061331115712     0.037918837896     0.001021999276
       8        0.060863036532    -0.037881591479    -0.001257530485


			-----------------------------------------
			 OPTKING 2.0: for geometry optimizations 
			  - R.A. King,  Bethel University        
			-----------------------------------------

	Internal coordinates to be generated automatically.
	Detected frag 1 with atoms:  1 2 3 4 5 6 7 8
	---Fragment 1 Bond Connectivity---
	 1 : 2 3 4 5 7
	 2 : 1 6
	 3 : 1
	 4 : 1
	 5 : 1
	 6 : 2 7
	 7 : 1 6 8
	 8 : 7

	---Fragment 1 Geometry and Gradient---
	 SI          3.4647918140        2.5454418573        0.0143318666
	 MN         -1.9127281431       -0.1344675888       -0.0020180439
	 H           2.2068086862        3.9142082899       -2.0422079509
	 H           2.8477678857        3.0313754838        2.6708162676
	 H           6.2119452748        2.5309608860       -0.4520260868
	 H           1.8237838758       -1.5646350029        0.0671988449
	 C           4.0649556057       -1.7668168019        0.0086683574
	 N           5.9863516588       -2.9222955150       -0.0353187978
	             0.0019835804        0.0008535350        0.0000564061
	            -0.0098236851       -0.0018687520        0.0000659832
	            -0.0001002501        0.0020305539       -0.0016959561
	            -0.0000319970        0.0011135303        0.0021658149
	             0.0024872229       -0.0009503736       -0.0003612896
	             0.0057306287       -0.0013356381        0.0000166527
	            -0.0613311157        0.0379188379        0.0010219993
	             0.0608630365       -0.0378815915       -0.0012575305

	Previous optimization step data not found.  Starting new optimization.

	---Fragment 1 Intrafragment Coordinates---
	 - Coordinate -           - BOHR/RAD -       - ANG/DEG -
	 R(1,2)           =         6.008319	       3.179466
	 R(1,3)           =         2.772255	       1.467014
	 R(1,4)           =         2.770155	       1.465903
	 R(1,5)           =         2.786494	       1.474549
	 R(1,7)           =         4.353826	       2.303946
	 R(2,6)           =         4.001461	       2.117482
	 R(6,7)           =         2.251034	       1.191196
	 R(7,8)           =         2.242505	       1.186683
	 B(1,2,6)         =         0.827959	      47.438549
	 B(1,7,6)         =         1.342583	      76.924365
	 B(1,7,8)         =         2.250390	     128.937875
	 B(2,1,3)         =         1.381742	      79.167960
	 B(2,1,4)         =         1.452014	      83.194265
	 B(2,1,5)         =         2.645823	     151.594477
	 B(2,1,7)         =         1.246752	      71.433624
	 B(2,6,7)         =         2.862652	     164.017890
	 B(3,1,4)         =         2.121990	     121.581085
	 B(3,1,5)         =         1.902633	     109.012843
	 B(3,1,7)         =         2.153892	     123.408907
	 B(4,1,5)         =         1.961677	     112.395811
	 B(4,1,7)         =         1.777969	     101.870143
	 B(5,1,7)         =         1.429056	      81.878879
	 B(6,7,8)         =         2.690207	     154.137513
	 D(1,2,6,7)       =        -0.143288	      -8.209802
	 D(1,7,6,2)       =         0.149568	       8.569596
	 D(2,1,7,6)       =        -0.028828	      -1.651744
	 D(2,1,7,8)       =         3.114990	     178.475765
	 D(2,6,7,8)       =        -2.995993	    -171.657769
	 D(3,1,2,6)       =         2.307279	     132.197337
	 D(3,1,7,6)       =        -1.122710	     -64.326542
	 D(3,1,7,8)       =         2.021108	     115.800966
	 D(4,1,2,6)       =        -1.810936	    -103.759014
	 D(4,1,7,6)       =         1.342304	      76.908349
	 D(4,1,7,8)       =        -1.797063	    -102.964143
	 D(5,1,2,6)       =         0.385884	      22.109520
	 D(5,1,7,6)       =        -2.998301	    -171.789970
	 D(5,1,7,8)       =         0.145517	       8.337538
	 D(6,2,1,7)       =         0.021446	       1.228759

	Current energy   :      -682.2573824029

	Generating empirical Hessian (Schlegel '84) for each fragment.
	Taking PRFO optimization step.
	Maximizing along 1 lowest eigenvalue of Hessian.

 RFO min eigenvalues
 -0.005676 -0.000000 -0.000000 -0.000000 -0.000000 -0.000000 -0.000000 -0.000000
 -0.000000 -0.000000  0.000000  0.000000  0.000000  0.000000  0.000000  0.000000
  0.000000  0.000000  0.000000  0.000000  0.002301  0.002354  0.016508  0.043031
  0.064581  0.080516  0.084320  0.107275  0.120155  0.149252  0.180359  0.184024
  0.184575  0.190106  0.222562  0.234772  0.249226  1.122681

 RFO max eigenvalues
 -0.000000  0.000000
	|RFO target step|  :        0.1834980710
	RFO gradient       :       -0.0309337549
	RFO hessian        :        0.1646944089
	Projected Delta(E) :       -0.0028089455

	Back-transformation to cartesian coordinates...
	Could not converge backtransformation.
	Using first guess instead.

	--- Internal Coordinate Step in ANG or DEG, aJ/ANG or AJ/DEG ---
	 ---------------------------------------------------------------------------
	   Coordinate                Previous        Force       Change         New 
	   ----------                --------       ------       ------       ------
	    1 R(1,2)          =      3.179466    -0.049869    -0.064826     3.114640
	    2 R(1,3)          =      1.467014    -0.019022    -0.006336     1.460679
	    3 R(1,4)          =      1.465903    -0.018710    -0.006273     1.459630
	    4 R(1,5)          =      1.474549    -0.020930    -0.007161     1.467389
	    5 R(1,7)          =      2.303946    -0.001979    -0.001262     2.302684
	    6 R(2,6)          =      2.117482    -0.038072    -0.013227     2.104255
	    7 R(6,7)          =      1.191196     0.010341    -0.001376     1.189819
	    8 R(7,8)          =      1.186683    -0.590819    -0.033734     1.152948
	    9 B(1,2,6)        =     47.438549     0.000081     0.816304    48.254852
	   10 B(1,7,6)        =     76.924365    -0.000012    -0.828150    76.096215
	   11 B(1,7,8)        =    128.937875    -0.000084    -0.008622   128.929253
	   12 B(2,1,3)        =     79.167960    -0.000098    -1.045660    78.122300
	   13 B(2,1,4)        =     83.194265    -0.000059    -0.378277    82.815989
	   14 B(2,1,5)        =    151.594477     0.000097     0.830441   152.424918
	   15 B(2,1,7)        =     71.433624     0.000015     0.845014    72.278638
	   16 B(2,6,7)        =    164.017890    -0.000085    -0.819489   163.198401
	   17 B(3,1,4)        =    121.581085     0.000035     0.135340   121.716426
	   18 B(3,1,5)        =    109.012843     0.000025     0.101071   109.113914
	   19 B(3,1,7)        =    123.408907    -0.000081    -0.227318   123.181589
	   20 B(4,1,5)        =    112.395811     0.000008     0.276799   112.672610
	   21 B(4,1,7)        =    101.870143    -0.000053    -0.397728   101.472415
	   22 B(5,1,7)        =     81.878879     0.000083     0.163279    82.042158
	   23 B(6,7,8)        =    154.137513     0.000096     0.834846   154.972359
	   24 D(1,2,6,7)      =     -8.209802     0.000002     0.505396    -7.704407
	   25 D(1,7,6,2)      =      8.569596    -0.000001    -0.557627     8.011969
	   26 D(2,1,7,6)      =     -1.651744    -0.000002     0.014280    -1.637463
	   27 D(2,1,7,8)      =    178.475765    -0.000002    -0.486646   177.989119
	   28 D(2,6,7,8)      =   -171.657769    -0.000001     0.356398  -171.301371
	   29 D(3,1,2,6)      =    132.197337    -0.000009    -0.123263   132.074074
	   30 D(3,1,7,6)      =    -64.326542     0.000013     0.537660   -63.788883
	   31 D(3,1,7,8)      =    115.800966     0.000013     0.036734   115.837699
	   32 D(4,1,2,6)      =   -103.759014     0.000010     0.442528  -103.316486
	   33 D(4,1,7,6)      =     76.908349    -0.000011    -0.013540    76.894809
	   34 D(4,1,7,8)      =   -102.964143    -0.000011    -0.514466  -103.478609
	   35 D(5,1,2,6)      =     22.109520     0.000011     1.295651    23.405171
	   36 D(5,1,7,6)      =   -171.789970    -0.000005     0.325002  -171.464969
	   37 D(5,1,7,8)      =      8.337538    -0.000005    -0.175924     8.161614
	   38 D(6,2,1,7)      =      1.228759     0.000001    -0.024258     1.204501
	 ---------------------------------------------------------------------------
	Successfully symmetrized geometry.

  ==> Convergence Check <==

  Measures of convergence in internal coordinates in au.
  Criteria marked as inactive (o), active & met (*), and active & unmet ( ).
  --------------------------------------------------------------------------------------------- ~
   Step     Total Energy     Delta E     MAX Force     RMS Force      MAX Disp      RMS Disp    ~
  --------------------------------------------------------------------------------------------- ~
    Convergence Criteria    1.00e-06 *    3.00e-04 *             o    1.20e-03 *             o  ~
  --------------------------------------------------------------------------------------------- ~
      1    -682.25738240   -6.82e+02      7.17e-02      1.17e-02 o    1.23e-01      2.46e-02 o  ~
  ---------------------------------------------------------------------------------------------

	Writing optimization data to binary file.
	Structure for next step:
	Cartesian Geometry (in Angstrom)
	   SI     1.8274844118   1.3368071366   0.0082402657
	   MN    -0.9712853609  -0.0298261132  -0.0053374834
	    H     1.1519683638   2.0458037607  -1.0755421463
	    H     1.4976163796   1.5824289575   1.4087322607
	    H     3.2734198202   1.3424912310  -0.2416966443
	    H     0.9762553180  -0.8255858415   0.0364018812
	    C     2.1600720068  -0.9417310843   0.0088582845
	    N     3.1517999444  -1.5291245132  -0.0182396408
			--------------------------
			 OPTKING Finished Execution 
			--------------------------

    Structure for next step:
    Molecular point group: c1
    Full point group: C1

    Geometry (in Angstrom), charge = 0, multiplicity = 1:

    SI           1.801115977885     1.309340333696     0.010765894957
    I           -0.997653794766    -0.057292916054    -0.002811854063
    H            1.125599929903     2.018336957769    -1.073016516980
    H            1.471247945762     1.554962154573     1.411257889977
    H            3.247051386270     1.315024428050    -0.239171014989
    H            0.949886884145    -0.853052644382     0.038927510502
    C            2.133703572881    -0.969197887250     0.011383913771
    N            3.125431510478    -1.556591316121    -0.015714011548

gradient() will perform analytic gradient computation.

*** tstart() called on localhost.localdomain
*** at Thu Jan 17 09:58:03 2019

   => Loading Basis Set <=

    Name: DEF2-TZVP
    Role: ORBITAL
    Keyword: BASIS
    atoms 1   entry SI         line   408 file /root/psi4conda/share/psi4/basis/def2-tzvp.gbs 
    atoms 2   entry I          line  2204 (ECP: line  3442) file /root/psi4conda/share/psi4/basis/def2-tzvp.gbs 
    atoms 3-6 entry H          line    15 file /root/psi4conda/share/psi4/basis/def2-tzvp.gbs 
    atoms 7   entry C          line   123 file /root/psi4conda/share/psi4/basis/def2-tzvp.gbs 
    atoms 8   entry N          line   156 file /root/psi4conda/share/psi4/basis/def2-tzvp.gbs 

    !!!  WARNING: ECP capability is in beta. Please check occupations closely.  !!!


         ---------------------------------------------------------
                                   SCF
            by Justin Turney, Rob Parrish, Andy Simmonett
                             and Daniel Smith
                              RKS Reference
                       32 Threads,    500 MiB Core
         ---------------------------------------------------------

  ==> Geometry <==

    Molecular point group: c1
    Full point group: C1

    Geometry (in Angstrom), charge = 0, multiplicity = 1:

       Center              X                  Y                   Z               Mass       
    ------------   -----------------  -----------------  -----------------  -----------------
         SI           1.801115977885     1.309340333696     0.010765894957    27.976926532460
         I           -0.997653794766    -0.057292916054    -0.002811854063   126.904472681000
         H            1.125599929903     2.018336957769    -1.073016516980     1.007825032070
         H            1.471247945762     1.554962154573     1.411257889977     1.007825032070
         H            3.247051386270     1.315024428050    -0.239171014989     1.007825032070
         H            0.949886884145    -0.853052644382     0.038927510502     1.007825032070
         C            2.133703572881    -0.969197887250     0.011383913771    12.000000000000
         N            3.125431510478    -1.556591316121    -0.015714011548    14.003074004780

  Running in c1 symmetry.

  Rotational constants: A =      0.15992  B =      0.03947  C =      0.03204 [cm^-1]
  Rotational constants: A =   4794.24954  B =   1183.18173  C =    960.64857 [MHz]
  Nuclear repulsion =  207.650048039095651

  Charge       = 0
  Multiplicity = 1
  Electrons    = 56
  Nalpha       = 28
  Nbeta        = 28

  ==> Algorithm <==

  SCF Algorithm Type is DF.
  DIIS enabled.
  MOM disabled.
  Fractional occupation disabled.
  Guess Type is READ.
  Energy threshold   = 1.00e-08
  Density threshold  = 1.00e-08
  Integral threshold = 0.00e+00

  ==> Primary Basis <==

  Basis Set: DEF2-TZVP
    Blend: DEF2-TZVP
    Number of shells: 67
    Number of basis function: 173
    Number of Cartesian functions: 197
    Spherical Harmonics?: true
    Max angular momentum: 3

  Core potential: DEF2-TZVP
    Number of shells: 4
    Number of ECP primitives: 29
    Number of ECP core electrons: 28
    Max angular momentum: 3

  ==> DFT Potential <==

   => Composite Functional: M06-2X <= 

    Hybrid M06-2X Meta-GGA XC Functional

    Y. Zhao and D. G. Truhlar,  Theor. Chem. Acc., 120, 215, 2008


    Deriv               =              1
    GGA                 =           TRUE
    Meta                =           TRUE

    Exchange Hybrid     =           TRUE
    MP2 Hybrid          =          FALSE

   => Exchange Functionals <=

    1.0000   XC_HYB_MGGA_X_M06_2X

   => Exact (HF) Exchange <=

    0.5400               HF 

   => Correlation Functionals <=

    1.0000   XC_MGGA_C_M06_2X

   => Molecular Quadrature <=

    Radial Scheme       =       TREUTLER
    Pruning Scheme      =           FLAT
    Nuclear Scheme      =       TREUTLER

    BS radius alpha     =              1
    Pruning alpha       =              1
    Radial Points       =             75
    Spherical Points    =            302
    Total Points        =         179389
    Total Blocks        =           1405
    Max Points          =            256
    Max Functions       =            163

   => Loading Basis Set <=

    Name: (DEF2-TZVP AUX)
    Role: JKFIT
    Keyword: DF_BASIS_SCF
    atoms 1   entry SI         line   742 file /root/psi4conda/share/psi4/basis/def2-tzvp-jkfit.gbs 
    atoms 2   entry I          line  4985 file /root/psi4conda/share/psi4/basis/def2-tzvp-jkfit.gbs 
    atoms 3-6 entry H          line    23 file /root/psi4conda/share/psi4/basis/def2-tzvp-jkfit.gbs 
    atoms 7   entry C          line   203 file /root/psi4conda/share/psi4/basis/def2-tzvp-jkfit.gbs 
    atoms 8   entry N          line   263 file /root/psi4conda/share/psi4/basis/def2-tzvp-jkfit.gbs 

  Reading orbitals from file 180, no projection.

  ==> Pre-Iterations <==

   -------------------------------------------------------
    Irrep   Nso     Nmo     Nalpha   Nbeta   Ndocc  Nsocc
   -------------------------------------------------------
     A        173     173       0       0       0       0
   -------------------------------------------------------
    Total     173     173      28      28      28       0
   -------------------------------------------------------

  ==> Integral Setup <==

  DFHelper Memory: AOs need 0.168 [GiB]; user supplied 0.366 [GiB]. Using in-core AOs.

  ==> MemDFJK: Density-Fitted J/K Matrices <==

    J tasked:                   Yes
    K tasked:                   Yes
    wK tasked:                   No
    OpenMP threads:              32
    Memory (MB):                375
    Algorithm:                 Core
    Schwarz Cutoff:           1E-12
    Mask sparsity (%):       5.8739
    Fitting Condition:        1E-12

   => Auxiliary Basis Set <=

  Basis Set: (DEF2-TZVP AUX)
    Blend: DEF2-TZVP-JKFIT
    Number of shells: 158
    Number of basis function: 570
    Number of Cartesian functions: 726
    Spherical Harmonics?: true
    Max angular momentum: 5

  Minimum eigenvalue in the overlap matrix is 5.1201732039E-04.
  Using Symmetric Orthogonalization.

  SCF Guess: Orbitals guess was supplied from a previous computation.

  ==> Iterations <==

                           Total Energy        Delta E     RMS |[F,P]|

   @DF-RKS iter   0:  -682.30542532215213   -6.82305e+02   1.89218e-03 
   @DF-RKS iter   1:  -682.26018014689987    4.52452e-02   3.15032e-04 
   @DF-RKS iter   2:  -682.26024975443659   -6.96075e-05   4.29030e-04 DIIS
   @DF-RKS iter   3:  -682.26061944833316   -3.69694e-04   9.82699e-05 DIIS
   @DF-RKS iter   4:  -682.26062469387205   -5.24554e-06   2.95079e-05 DIIS
   @DF-RKS iter   5:  -682.26062619602919   -1.50216e-06   1.50073e-05 DIIS
   @DF-RKS iter   6:  -682.26062664111760   -4.45088e-07   6.41258e-06 DIIS
   @DF-RKS iter   7:  -682.26062694197583   -3.00858e-07   2.74680e-06 DIIS
   @DF-RKS iter   8:  -682.26062698225610   -4.02803e-08   7.17414e-07 DIIS
   @DF-RKS iter   9:  -682.26062698733017   -5.07407e-09   1.75044e-07 DIIS
   @DF-RKS iter  10:  -682.26062698763360   -3.03430e-10   1.05423e-07 DIIS
   @DF-RKS iter  11:  -682.26062698765622   -2.26237e-11   3.34037e-08 DIIS
   @DF-RKS iter  12:  -682.26062698765884   -2.61480e-12   1.02737e-08 DIIS
   @DF-RKS iter  13:  -682.26062698765793    9.09495e-13   4.02746e-09 DIIS

  ==> Post-Iterations <==

    Orbital Energies [Eh]
    ---------------------

    Doubly Occupied:                                                      

       1A    -67.110190     2A    -14.817718     3A    -10.608822  
       4A     -7.066862     5A     -5.646123     6A     -5.054397  
       7A     -5.053704     8A     -5.051428     9A     -3.959340  
      10A     -3.953922    11A     -3.953804    12A     -2.023167  
      13A     -2.022997    14A     -2.020817    15A     -2.020219  
      16A     -2.019873    17A     -1.067741    18A     -0.769324  
      19A     -0.697891    20A     -0.639113    21A     -0.506253  
      22A     -0.491113    23A     -0.487733    24A     -0.459621  
      25A     -0.444238    26A     -0.314110    27A     -0.306236  
      28A     -0.300585  

    Virtual:                                                              

      29A     -0.124035    30A     -0.005283    31A      0.015901  
      32A      0.026661    33A      0.069308    34A      0.071202  
      35A      0.105823    36A      0.136272    37A      0.144239  
      38A      0.159325    39A      0.177360    40A      0.190655  
      41A      0.199813    42A      0.223606    43A      0.231512  
      44A      0.239620    45A      0.241387    46A      0.263824  
      47A      0.278562    48A      0.300205    49A      0.308755  
      50A      0.314991    51A      0.318422    52A      0.331491  
      53A      0.336313    54A      0.356145    55A      0.403927  
      56A      0.419744    57A      0.466197    58A      0.479378  
      59A      0.502518    60A      0.520355    61A      0.560826  
      62A      0.575643    63A      0.615870    64A      0.656074  
      65A      0.703846    66A      0.713008    67A      0.740340  
      68A      0.784856    69A      0.828492    70A      0.866709  
      71A      0.885730    72A      0.904808    73A      0.915894  
      74A      0.946349    75A      0.957784    76A      0.963360  
      77A      0.965006    78A      0.984508    79A      0.993464  
      80A      0.997997    81A      1.028746    82A      1.042433  
      83A      1.075121    84A      1.080234    85A      1.099898  
      86A      1.109905    87A      1.132669    88A      1.206434  
      89A      1.223574    90A      1.231778    91A      1.263100  
      92A      1.271620    93A      1.289745    94A      1.304759  
      95A      1.329999    96A      1.341399    97A      1.390165  
      98A      1.448111    99A      1.456329   100A      1.482577  
     101A      1.495963   102A      1.504380   103A      1.508097  
     104A      1.542487   105A      1.571562   106A      1.656817  
     107A      1.690558   108A      1.790751   109A      1.828967  
     110A      1.845197   111A      1.880561   112A      1.922342  
     113A      1.954274   114A      1.971950   115A      1.984433  
     116A      2.075683   117A      2.125594   118A      2.182950  
     119A      2.248924   120A      2.275871   121A      2.289981  
     122A      2.346252   123A      2.377633   124A      2.389590  
     125A      2.509715   126A      2.639874   127A      2.695340  
     128A      2.711328   129A      2.765715   130A      2.835681  
     131A      2.879355   132A      2.899642   133A      2.931763  
     134A      2.960647   135A      3.074427   136A      3.120193  
     137A      3.176941   138A      3.185182   139A      3.188851  
     140A      3.189131   141A      3.203016   142A      3.226342  
     143A      3.260369   144A      3.286181   145A      3.348475  
     146A      3.375907   147A      3.453886   148A      3.797359  
     149A      3.930019   150A      3.931739   151A      4.182114  
     152A      4.417461   153A      4.447549   154A      4.488810  
     155A      4.573429   156A      4.594534   157A      4.875530  
     158A      5.073452   159A      5.301025   160A      5.376452  
     161A      5.537415   162A      5.813412   163A      6.193475  
     164A      6.245584   165A      6.324285   166A     10.672489  
     167A     22.525942   168A     32.066356   169A     34.518779  
     170A     34.551550   171A     34.688432   172A     42.834315  
     173A    117.579575  

    Final Occupation by Irrep:
              A 
    DOCC [    28 ]

  Energy converged.

  @DF-RKS Final Energy:  -682.26062698765793

   => Energetics <=

    Nuclear Repulsion Energy =            207.6500480390956511
    One-Electron Energy =               -1460.0008651002046918
    Two-Electron Energy =                 597.3112195180195840
    DFT Exchange-Correlation Energy =     -27.2210294445685363
    Empirical Dispersion Energy =           0.0000000000000000
    VV10 Nonlocal Energy =                  0.0000000000000000
    Total Energy =                       -682.2606269876579290



Properties will be evaluated at   0.000000,   0.000000,   0.000000 [a0]

Properties computed using the SCF density matrix

  Nuclear Dipole Moment: [e a0]
     X:    78.8929      Y:     7.9792      Z:     0.3340

  Electronic Dipole Moment: [e a0]
     X:   -77.8343      Y:    -6.7327      Z:    -0.3038

  Dipole Moment: [e a0]
     X:     1.0585      Y:     1.2465      Z:     0.0302     Total:     1.6356

  Dipole Moment: [D]
     X:     2.6905      Y:     3.1682      Z:     0.0768     Total:     4.1572


*** tstop() called on localhost.localdomain at Thu Jan 17 09:58:11 2019
Module time:
	user time   =     190.81 seconds =       3.18 minutes
	system time =       9.66 seconds =       0.16 minutes
	total time  =          8 seconds =       0.13 minutes
Total time:
	user time   =    2382.82 seconds =      39.71 minutes
	system time =     113.37 seconds =       1.89 minutes
	total time  =        114 seconds =       1.90 minutes

*** tstart() called on localhost.localdomain
*** at Thu Jan 17 09:58:11 2019


         ------------------------------------------------------------
                                   SCF GRAD                          
                          Rob Parrish, Justin Turney,                
                       Andy Simmonett, and Alex Sokolov              
         ------------------------------------------------------------

  ==> Geometry <==

    Molecular point group: c1
    Full point group: C1

    Geometry (in Angstrom), charge = 0, multiplicity = 1:

       Center              X                  Y                   Z               Mass       
    ------------   -----------------  -----------------  -----------------  -----------------
         SI           1.801115977885     1.309340333696     0.010765894957    27.976926532460
         I           -0.997653794766    -0.057292916054    -0.002811854063   126.904472681000
         H            1.125599929903     2.018336957769    -1.073016516980     1.007825032070
         H            1.471247945762     1.554962154573     1.411257889977     1.007825032070
         H            3.247051386270     1.315024428050    -0.239171014989     1.007825032070
         H            0.949886884145    -0.853052644382     0.038927510502     1.007825032070
         C            2.133703572881    -0.969197887250     0.011383913771    12.000000000000
         N            3.125431510478    -1.556591316121    -0.015714011548    14.003074004780

  Nuclear repulsion =  207.650048039095651

  ==> Basis Set <==

  Basis Set: DEF2-TZVP
    Blend: DEF2-TZVP
    Number of shells: 67
    Number of basis function: 173
    Number of Cartesian functions: 197
    Spherical Harmonics?: true
    Max angular momentum: 3

  Core potential: DEF2-TZVP
    Number of shells: 4
    Number of ECP primitives: 29
    Number of ECP core electrons: 28
    Max angular momentum: 3

  ==> DFJKGrad: Density-Fitted SCF Gradients <==

    Gradient:                    1
    J tasked:                  Yes
    K tasked:                  Yes
    wK tasked:                  No
    OpenMP threads:             32
    Integrals threads:          32
    Memory (MB):               375
    Schwarz Cutoff:          0E+00
    Fitting Condition:       1E-12

   => Auxiliary Basis Set <=

  Basis Set: (DEF2-TZVP AUX)
    Blend: DEF2-TZVP-JKFIT
    Number of shells: 158
    Number of basis function: 570
    Number of Cartesian functions: 726
    Spherical Harmonics?: true
    Max angular momentum: 5

  ==> DFT Potential <==

   => Composite Functional: M06-2X <= 

    Hybrid M06-2X Meta-GGA XC Functional

    Y. Zhao and D. G. Truhlar,  Theor. Chem. Acc., 120, 215, 2008


    Deriv               =              1
    GGA                 =           TRUE
    Meta                =           TRUE

    Exchange Hybrid     =           TRUE
    MP2 Hybrid          =          FALSE

   => Exchange Functionals <=

    1.0000   XC_HYB_MGGA_X_M06_2X

   => Exact (HF) Exchange <=

    0.5400               HF 

   => Correlation Functionals <=

    1.0000   XC_MGGA_C_M06_2X

   => Molecular Quadrature <=

    Radial Scheme       =       TREUTLER
    Pruning Scheme      =           FLAT
    Nuclear Scheme      =       TREUTLER

    BS radius alpha     =              1
    Pruning alpha       =              1
    Radial Points       =             75
    Spherical Points    =            302
    Total Points        =         179389
    Total Blocks        =           1405
    Max Points          =            256
    Max Functions       =            163


  -Total Gradient:
     Atom            X                  Y                   Z
    ------   -----------------  -----------------  -----------------
       1        0.001690678117    -0.000956484909     0.000515362785
       2       -0.007370688052     0.002122330302    -0.000142002995
       3       -0.000008272182    -0.000075949432    -0.000290356336
       4       -0.000246817581     0.000202672700    -0.000054036474
       5       -0.000253743029     0.000110300583     0.000088684153
       6        0.006141538607    -0.005110132905     0.000258186204
       7        0.000811843799     0.005028808223    -0.000451687966
       8       -0.000943058683    -0.001540301422     0.000096288090


*** tstop() called on localhost.localdomain at Thu Jan 17 09:58:18 2019
Module time:
	user time   =      88.94 seconds =       1.48 minutes
	system time =       7.29 seconds =       0.12 minutes
	total time  =          7 seconds =       0.12 minutes
Total time:
	user time   =    2471.82 seconds =      41.20 minutes
	system time =     120.67 seconds =       2.01 minutes
	total time  =        121 seconds =       2.02 minutes


  ==> Adding ECP gradient terms (computed numerically) <==

  -ECP Gradient:
     Atom            X                  Y                   Z
    ------   -----------------  -----------------  -----------------
       1        0.004549924254     0.001111386669    -0.000022094747
       2        0.001093026156    -0.003546316674     0.000208224418
       3       -0.000588466123    -0.000575312675     0.000316523826
       4       -0.000339632666    -0.000195254426    -0.000200014885
       5        0.000034110261     0.000010528692    -0.000002351257
       6       -0.003457213159     0.003216160813    -0.000385092545
       7       -0.001312195460    -0.000014474567     0.000084719331
       8        0.000020445755    -0.000006719354     0.000000086657


  -Total Gradient:
     Atom            X                  Y                   Z
    ------   -----------------  -----------------  -----------------
       1        0.006240602370     0.000154901759     0.000493268038
       2       -0.006277661896    -0.001423986372     0.000066221424
       3       -0.000596738305    -0.000651262107     0.000026167491
       4       -0.000586450247     0.000007418274    -0.000254051359
       5       -0.000219632767     0.000120829275     0.000086332896
       6        0.002684325448    -0.001893972092    -0.000126906341
       7       -0.000500351661     0.005014333656    -0.000366968635
       8       -0.000922612928    -0.001547020776     0.000096374746


			-----------------------------------------
			 OPTKING 2.0: for geometry optimizations 
			  - R.A. King,  Bethel University        
			-----------------------------------------

	Previous internal coordinate definitions found.
	---Fragment 1 Geometry and Gradient---
	 SI          3.4036159318        2.4742946454        0.0203445930
	 MN         -1.8852924475       -0.1082679207       -0.0053136341
	 H           2.1270756027        3.8141040941       -2.0277073532
	 H           2.7802556911        2.9384526191        2.6668909149
	 H           6.1360378595        2.4850360271       -0.4519677173
	 H           1.7950260683       -1.6120358748        0.0735623339
	 C           4.0321154015       -1.8315185755        0.0215124793
	 N           5.9062096019       -2.9415312883       -0.0296951783
	             0.0062406024        0.0001549018        0.0004932680
	            -0.0062776619       -0.0014239864        0.0000662214
	            -0.0005967383       -0.0006512621        0.0000261675
	            -0.0005864502        0.0000074183       -0.0002540514
	            -0.0002196328        0.0001208293        0.0000863329
	             0.0026843254       -0.0018939721       -0.0001269063
	            -0.0005003517        0.0050143337       -0.0003669686
	            -0.0009226129       -0.0015470208        0.0000963747

	---Fragment 1 Intrafragment Coordinates---
	 - Coordinate -           - BOHR/RAD -       - ANG/DEG -
	 R(1,2)           =         5.885817	       3.114640
	 R(1,3)           =         2.760283	       1.460679
	 R(1,4)           =         2.758302	       1.459630
	 R(1,5)           =         2.772963	       1.467389
	 R(1,7)           =         4.351441	       2.302684
	 R(2,6)           =         3.976466	       2.104255
	 R(6,7)           =         2.248433	       1.189819
	 R(7,8)           =         2.178756	       1.152948
	 B(1,2,6)         =         0.842206	      48.254852
	 B(1,7,6)         =         1.328130	      76.096215
	 B(1,7,8)         =         2.250240	     128.929253
	 B(2,1,3)         =         1.363491	      78.122300
	 B(2,1,4)         =         1.445412	      82.815989
	 B(2,1,5)         =         2.660317	     152.424918
	 B(2,1,7)         =         1.261500	      72.278638
	 B(2,6,7)         =         2.848349	     163.198401
	 B(3,1,4)         =         2.124352	     121.716426
	 B(3,1,5)         =         1.904397	     109.113914
	 B(3,1,7)         =         2.149924	     123.181589
	 B(4,1,5)         =         1.966508	     112.672610
	 B(4,1,7)         =         1.771028	     101.472415
	 B(5,1,7)         =         1.431906	      82.042158
	 B(6,7,8)         =         2.704778	     154.972359
	 D(1,2,6,7)       =        -0.134467	      -7.704407
	 D(1,7,6,2)       =         0.139835	       8.011969
	 D(2,1,7,6)       =        -0.028579	      -1.637463
	 D(2,1,7,8)       =         3.106496	     177.989119
	 D(2,6,7,8)       =        -2.989773	    -171.301371
	 D(3,1,2,6)       =         2.305127	     132.074074
	 D(3,1,7,6)       =        -1.113326	     -63.788883
	 D(3,1,7,8)       =         2.021749	     115.837699
	 D(4,1,2,6)       =        -1.803213	    -103.316486
	 D(4,1,7,6)       =         1.342068	      76.894809
	 D(4,1,7,8)       =        -1.806042	    -103.478609
	 D(5,1,2,6)       =         0.408497	      23.405171
	 D(5,1,7,6)       =        -2.992628	    -171.464969
	 D(5,1,7,8)       =         0.142447	       8.161614
	 D(6,2,1,7)       =         0.021023	       1.204501

	Current energy   :      -682.2606269877

	Energy change for the previous step:
		Projected    :        -0.0028089455
		Actual       :        -0.0032445847

	Performing Bofill update.
	Previous computed or guess Hessian on step 1.
	Steps to be used in Hessian update: 1
	Taking PRFO optimization step.
	Maximizing along 1 lowest eigenvalue of Hessian.

 RFO min eigenvalues
 -0.004628 -0.000000 -0.000000 -0.000000 -0.000000 -0.000000 -0.000000 -0.000000
 -0.000000 -0.000000  0.000000  0.000000  0.000000  0.000000  0.000000  0.000000
  0.000000  0.000000  0.000000  0.000000  0.002314  0.002511  0.007453  0.017248
  0.063553  0.079871  0.086659  0.107263  0.120987  0.149383  0.180605  0.184101
  0.184745  0.188582  0.220242  0.233702  0.247840  1.122430

 RFO max eigenvalues
 -0.000000  0.000000
	Change in coordinate exceeds step limit of    0.50000.
	Scaling displacements by    0.63041
	|RFO target step|  :        0.5000000000
	RFO gradient       :       -0.0058354665
	RFO hessian        :        0.0027486083
	Projected Delta(E) :       -0.0020593258

	Back-transformation to cartesian coordinates...
	Successfully converged to displaced geometry.
	First geometry is closer to target in internal coordinates, so am using that one.
	First geometry has RMS(Delta(q)) = 6.64e-03

	--- Internal Coordinate Step in ANG or DEG, aJ/ANG or AJ/DEG ---
	 ---------------------------------------------------------------------------
	   Coordinate                Previous        Force       Change         New 
	   ----------                --------       ------       ------       ------
	    1 R(1,2)          =      3.114640    -0.038495    -0.234427     2.880213
	    2 R(1,3)          =      1.460679     0.000432     0.000817     1.461495
	    3 R(1,4)          =      1.459630     0.000945     0.001288     1.460919
	    4 R(1,5)          =      1.467389     0.001721     0.002119     1.469508
	    5 R(1,7)          =      2.302684     0.018079     0.054741     2.357425
	    6 R(2,6)          =      2.104255    -0.016426    -0.020240     2.084015
	    7 R(6,7)          =      1.189819     0.007174    -0.003457     1.186362
	    8 R(7,8)          =      1.152948     0.000011     0.000794     1.153742
	    9 B(1,2,6)        =     48.254852     0.000069     3.537471    51.792324
	   10 B(1,7,6)        =     76.096215    -0.000071    -4.342074    71.754142
	   11 B(1,7,8)        =    128.929253    -0.000111    -0.544712   128.384541
	   12 B(2,1,3)        =     78.122300     0.000044     0.189283    78.311584
	   13 B(2,1,4)        =     82.815989     0.000023     1.064557    83.880546
	   14 B(2,1,5)        =    152.424918    -0.000012     0.712616   153.137535
	   15 B(2,1,7)        =     72.278638     0.000025     3.097724    75.376363
	   16 B(2,6,7)        =    163.198401    -0.000023    -2.246543   160.951858
	   17 B(3,1,4)        =    121.716426     0.000003     0.674144   122.390570
	   18 B(3,1,5)        =    109.113914    -0.000019    -1.253214   107.860700
	   19 B(3,1,7)        =    123.181589     0.000069     2.438964   125.620553
	   20 B(4,1,5)        =    112.672610    -0.000024    -0.644885   112.027725
	   21 B(4,1,7)        =    101.472415    -0.000010    -0.429903   101.042513
	   22 B(5,1,7)        =     82.042158    -0.000036    -1.809933    80.232225
	   23 B(6,7,8)        =    154.972359     0.000182     4.790997   159.763357
	   24 D(1,2,6,7)      =     -7.704407     0.000001     1.474709    -6.229698
	   25 D(1,7,6,2)      =      8.011969    -0.000001    -1.714388     6.297581
	   26 D(2,1,7,6)      =     -1.637463    -0.000000     0.103450    -1.534014
	   27 D(2,1,7,8)      =    177.989119    -0.000001    -1.804437   176.184682
	   28 D(2,6,7,8)      =   -171.301371     0.000001     2.774423  -168.526948
	   29 D(3,1,2,6)      =    132.074074     0.000010     0.943387   133.017461
	   30 D(3,1,7,6)      =    -63.788883    -0.000008    -1.353329   -65.142212
	   31 D(3,1,7,8)      =    115.837699    -0.000009    -3.261216   112.576484
	   32 D(4,1,2,6)      =   -103.316486     0.000006     1.247942  -102.068544
	   33 D(4,1,7,6)      =     76.894809     0.000008     2.180365    79.075174
	   34 D(4,1,7,8)      =   -103.478609     0.000007     0.272478  -103.206131
	   35 D(5,1,2,6)      =     23.405171     0.000001     3.071249    26.476421
	   36 D(5,1,7,6)      =   -171.464969     0.000001     1.281867  -170.183102
	   37 D(5,1,7,8)      =      8.161614     0.000001    -0.626020     7.535594
	   38 D(6,2,1,7)      =      1.204501     0.000000    -0.149101     1.055400
	 ---------------------------------------------------------------------------
	Successfully symmetrized geometry.

  ==> Convergence Check <==

  Measures of convergence in internal coordinates in au.
  Criteria marked as inactive (o), active & met (*), and active & unmet ( ).
  ---------------------------------------------------------------------------------------------
   Step     Total Energy     Delta E     MAX Force     RMS Force      MAX Disp      RMS Disp   
  ---------------------------------------------------------------------------------------------
    Convergence Criteria    1.00e-06 *    3.00e-04 *             o    1.20e-03 *             o
  ---------------------------------------------------------------------------------------------
      2    -682.26062699   -3.24e-03      4.67e-03      1.08e-03 o    4.43e-01      8.08e-02 o  ~
  ---------------------------------------------------------------------------------------------

	Writing optimization data to binary file.
	Structure for next step:
	Cartesian Geometry (in Angstrom)
	   SI     1.7352210312   1.2908038463   0.0084745167
	   MN    -0.8778884222   0.0797737992  -0.0178390069
	    H     1.0784436388   2.0272156791  -1.0696301078
	    H     1.4365322507   1.5342925570   1.4176519850
	    H     3.1804554130   1.2959437632  -0.2574652720
	    H     0.9794087639  -0.8635242015   0.0434358672
	    C     2.1540955528  -1.0290095134   0.0299806360
	    N     3.1701151844  -1.5739668197  -0.0129868066
			--------------------------
			 OPTKING Finished Execution 
			--------------------------

    Structure for next step:
    Molecular point group: c1
    Full point group: C1

    Geometry (in Angstrom), charge = 0, multiplicity = 1:

    SI           1.658938955182     1.204964394052     0.017742549477
    I           -0.954170498251    -0.006065653003    -0.008570974134
    H            1.002161562842     1.941376226853    -1.060362075027
    H            1.360250174732     1.448453104781     1.426920017751
    H            3.104173336951     1.210104311019    -0.248197239252
    H            0.903126687923    -0.949363653694     0.052703899994
    C            2.077813476744    -1.114848965626     0.039248668751
    N            3.093833108382    -1.659806271938    -0.003718773812

gradient() will perform analytic gradient computation.

*** tstart() called on localhost.localdomain
*** at Thu Jan 17 09:59:50 2019

   => Loading Basis Set <=

    Name: DEF2-TZVP
    Role: ORBITAL
    Keyword: BASIS
    atoms 1   entry SI         line   408 file /root/psi4conda/share/psi4/basis/def2-tzvp.gbs 
    atoms 2   entry I          line  2204 (ECP: line  3442) file /root/psi4conda/share/psi4/basis/def2-tzvp.gbs 
    atoms 3-6 entry H          line    15 file /root/psi4conda/share/psi4/basis/def2-tzvp.gbs 
    atoms 7   entry C          line   123 file /root/psi4conda/share/psi4/basis/def2-tzvp.gbs 
    atoms 8   entry N          line   156 file /root/psi4conda/share/psi4/basis/def2-tzvp.gbs 

    !!!  WARNING: ECP capability is in beta. Please check occupations closely.  !!!


         ---------------------------------------------------------
                                   SCF
            by Justin Turney, Rob Parrish, Andy Simmonett
                             and Daniel Smith
                              RKS Reference
                       32 Threads,    500 MiB Core
         ---------------------------------------------------------

  ==> Geometry <==

    Molecular point group: c1
    Full point group: C1

    Geometry (in Angstrom), charge = 0, multiplicity = 1:

       Center              X                  Y                   Z               Mass       
    ------------   -----------------  -----------------  -----------------  -----------------
         SI           1.658938955182     1.204964394052     0.017742549477    27.976926532460
         I           -0.954170498251    -0.006065653003    -0.008570974134   126.904472681000
         H            1.002161562842     1.941376226853    -1.060362075027     1.007825032070
         H            1.360250174732     1.448453104781     1.426920017751     1.007825032070
         H            3.104173336951     1.210104311019    -0.248197239252     1.007825032070
         H            0.903126687923    -0.949363653694     0.052703899994     1.007825032070
         C            2.077813476744    -1.114848965626     0.039248668751    12.000000000000
         N            3.093833108382    -1.659806271938    -0.003718773812    14.003074004780

  Running in c1 symmetry.

  Rotational constants: A =      0.16653  B =      0.04219  C =      0.03411 [cm^-1]
  Rotational constants: A =   4992.53515  B =   1264.94171  C =   1022.57449 [MHz]
  Nuclear repulsion =  212.830886227343399

  Charge       = 0
  Multiplicity = 1
  Electrons    = 56
  Nalpha       = 28
  Nbeta        = 28

  ==> Algorithm <==

  SCF Algorithm Type is DF.
  DIIS enabled.
  MOM disabled.
  Fractional occupation disabled.
  Guess Type is READ.
  Energy threshold   = 1.00e-08
  Density threshold  = 1.00e-08
  Integral threshold = 0.00e+00

  ==> Primary Basis <==

  Basis Set: DEF2-TZVP
    Blend: DEF2-TZVP
    Number of shells: 67
    Number of basis function: 173
    Number of Cartesian functions: 197
    Spherical Harmonics?: true
    Max angular momentum: 3

  Core potential: DEF2-TZVP
    Number of shells: 4
    Number of ECP primitives: 29
    Number of ECP core electrons: 28
    Max angular momentum: 3

  ==> DFT Potential <==

   => Composite Functional: M06-2X <= 

    Hybrid M06-2X Meta-GGA XC Functional

    Y. Zhao and D. G. Truhlar,  Theor. Chem. Acc., 120, 215, 2008


    Deriv               =              1
    GGA                 =           TRUE
    Meta                =           TRUE

    Exchange Hybrid     =           TRUE
    MP2 Hybrid          =          FALSE

   => Exchange Functionals <=

    1.0000   XC_HYB_MGGA_X_M06_2X

   => Exact (HF) Exchange <=

    0.5400               HF 

   => Correlation Functionals <=

    1.0000   XC_MGGA_C_M06_2X

   => Molecular Quadrature <=

    Radial Scheme       =       TREUTLER
    Pruning Scheme      =           FLAT
    Nuclear Scheme      =       TREUTLER

    BS radius alpha     =              1
    Pruning alpha       =              1
    Radial Points       =             75
    Spherical Points    =            302
    Total Points        =         179380
    Total Blocks        =           1406
    Max Points          =            256
    Max Functions       =            164

   => Loading Basis Set <=

    Name: (DEF2-TZVP AUX)
    Role: JKFIT
    Keyword: DF_BASIS_SCF
    atoms 1   entry SI         line   742 file /root/psi4conda/share/psi4/basis/def2-tzvp-jkfit.gbs 
    atoms 2   entry I          line  4985 file /root/psi4conda/share/psi4/basis/def2-tzvp-jkfit.gbs 
    atoms 3-6 entry H          line    23 file /root/psi4conda/share/psi4/basis/def2-tzvp-jkfit.gbs 
    atoms 7   entry C          line   203 file /root/psi4conda/share/psi4/basis/def2-tzvp-jkfit.gbs 
    atoms 8   entry N          line   263 file /root/psi4conda/share/psi4/basis/def2-tzvp-jkfit.gbs 

  Reading orbitals from file 180, no projection.

  ==> Pre-Iterations <==

   -------------------------------------------------------
    Irrep   Nso     Nmo     Nalpha   Nbeta   Ndocc  Nsocc
   -------------------------------------------------------
     A        173     173       0       0       0       0
   -------------------------------------------------------
    Total     173     173      28      28      28       0
   -------------------------------------------------------

  ==> Integral Setup <==

  DFHelper Memory: AOs need 0.168 [GiB]; user supplied 0.366 [GiB]. Using in-core AOs.

  ==> MemDFJK: Density-Fitted J/K Matrices <==

    J tasked:                   Yes
    K tasked:                   Yes
    wK tasked:                   No
    OpenMP threads:              32
    Memory (MB):                375
    Algorithm:                 Core
    Schwarz Cutoff:           1E-12
    Mask sparsity (%):       5.5866
    Fitting Condition:        1E-12

   => Auxiliary Basis Set <=

  Basis Set: (DEF2-TZVP AUX)
    Blend: DEF2-TZVP-JKFIT
    Number of shells: 158
    Number of basis function: 570
    Number of Cartesian functions: 726
    Spherical Harmonics?: true
    Max angular momentum: 5

  Minimum eigenvalue in the overlap matrix is 4.9244890236E-04.
  Using Symmetric Orthogonalization.

  SCF Guess: Orbitals guess was supplied from a previous computation.

  ==> Iterations <==

                           Total Energy        Delta E     RMS |[F,P]|

   @DF-RKS iter   0:  -682.27688008603013   -6.82277e+02   5.78818e-03 
   @DF-RKS iter   1:  -682.26273468054262    1.41454e-02   7.78963e-04 
   @DF-RKS iter   2:  -682.26361640968753   -8.81729e-04   9.43475e-04 DIIS
   @DF-RKS iter   3:  -682.26422957267437   -6.13163e-04   2.81986e-04 DIIS
   @DF-RKS iter   4:  -682.26432909717823   -9.95245e-05   1.91743e-04 DIIS
   @DF-RKS iter   5:  -682.26439307508736   -6.39779e-05   5.47000e-05 DIIS
   @DF-RKS iter   6:  -682.26440514729074   -1.20722e-05   2.58046e-05 DIIS
   @DF-RKS iter   7:  -682.26440587365710   -7.26366e-07   6.10130e-06 DIIS
   @DF-RKS iter   8:  -682.26440593384007   -6.01830e-08   1.97723e-06 DIIS
   @DF-RKS iter   9:  -682.26440593625671   -2.41664e-09   6.12220e-07 DIIS
   @DF-RKS iter  10:  -682.26440593658413   -3.27418e-10   1.46234e-07 DIIS
   @DF-RKS iter  11:  -682.26440593662846   -4.43379e-11   3.55025e-08 DIIS
   @DF-RKS iter  12:  -682.26440593663403   -5.57066e-12   1.86064e-08 DIIS
   @DF-RKS iter  13:  -682.26440593663472   -6.82121e-13   3.86296e-09 DIIS

  ==> Post-Iterations <==

    Orbital Energies [Eh]
    ---------------------

    Doubly Occupied:                                                      

       1A    -67.099514     2A    -14.808413     3A    -10.602506  
       4A     -7.079300     5A     -5.635526     6A     -5.067894  
       7A     -5.065322     8A     -5.063702     9A     -3.948778  
      10A     -3.943414    11A     -3.943292    12A     -2.036312  
      13A     -2.035845    14A     -2.034086    15A     -2.031876  
      16A     -2.031866    17A     -1.058894    18A     -0.784825  
      19A     -0.693740    20A     -0.635662    21A     -0.497155  
      22A     -0.484576    23A     -0.480264    24A     -0.452412  
      25A     -0.437918    26A     -0.324909    27A     -0.316710  
      28A     -0.311457  

    Virtual:                                                              

      29A     -0.114664    30A     -0.000050    31A      0.023327  
      32A      0.037907    33A      0.074262    34A      0.079017  
      35A      0.107420    36A      0.132776    37A      0.143037  
      38A      0.162240    39A      0.177920    40A      0.191506  
      41A      0.192239    42A      0.215872    43A      0.226763  
      44A      0.238710    45A      0.244453    46A      0.268770  
      47A      0.287189    48A      0.300474    49A      0.306578  
      50A      0.317830    51A      0.323246    52A      0.337519  
      53A      0.352449    54A      0.357843    55A      0.410424  
      56A      0.429264    57A      0.473690    58A      0.483499  
      59A      0.507902    60A      0.524344    61A      0.566903  
      62A      0.583852    63A      0.620935    64A      0.665743  
      65A      0.712484    66A      0.724203    67A      0.741136  
      68A      0.779574    69A      0.828431    70A      0.862564  
      71A      0.878655    72A      0.898205    73A      0.915301  
      74A      0.938191    75A      0.949731    76A      0.954326  
      77A      0.963027    78A      0.989018    79A      0.999929  
      80A      1.006816    81A      1.043259    82A      1.053730  
      83A      1.073268    84A      1.093626    85A      1.099251  
      86A      1.119509    87A      1.153112    88A      1.211671  
      89A      1.230349    90A      1.243390    91A      1.280133  
      92A      1.285549    93A      1.292621    94A      1.310410  
      95A      1.336081    96A      1.357622    97A      1.410210  
      98A      1.433743    99A      1.449994   100A      1.480215  
     101A      1.495230   102A      1.504128   103A      1.536948  
     104A      1.543684   105A      1.593427   106A      1.645897  
     107A      1.715786   108A      1.795271   109A      1.837420  
     110A      1.857280   111A      1.903689   112A      1.940474  
     113A      1.972657   114A      1.982043   115A      1.997988  
     116A      2.084953   117A      2.129105   118A      2.185489  
     119A      2.263131   120A      2.284832   121A      2.298053  
     122A      2.357420   123A      2.387654   124A      2.433294  
     125A      2.519194   126A      2.660169   127A      2.688539  
     128A      2.709954   129A      2.774266   130A      2.834208  
     131A      2.880181   132A      2.893826   133A      2.922302  
     134A      2.943312   135A      3.074656   136A      3.108484  
     137A      3.173318   138A      3.175731   139A      3.178865  
     140A      3.182895   141A      3.212024   142A      3.240458  
     143A      3.276760   144A      3.313180   145A      3.357580  
     146A      3.399668   147A      3.473530   148A      3.779771  
     149A      3.936972   150A      3.937438   151A      4.291941  
     152A      4.423541   153A      4.444489   154A      4.479375  
     155A      4.578920   156A      4.595272   157A      4.891553  
     158A      5.063407   159A      5.317613   160A      5.390478  
     161A      5.525403   162A      5.850866   163A      6.210597  
     164A      6.298184   165A      6.341696   166A     10.660216  
     167A     22.517462   168A     32.093086   169A     34.511227  
     170A     34.553919   171A     34.709967   172A     42.843080  
     173A    117.572733  

    Final Occupation by Irrep:
              A 
    DOCC [    28 ]

  Energy converged.

  @DF-RKS Final Energy:  -682.26440593663472

   => Energetics <=

    Nuclear Repulsion Energy =            212.8308862273433988
    One-Electron Energy =               -1470.2840538672430739
    Two-Electron Energy =                 602.4211021587061623
    DFT Exchange-Correlation Energy =     -27.2323404554411681
    Empirical Dispersion Energy =           0.0000000000000000
    VV10 Nonlocal Energy =                  0.0000000000000000
    Total Energy =                       -682.2644059366347165



Properties will be evaluated at   0.000000,   0.000000,   0.000000 [a0]

Properties computed using the SCF density matrix

  Nuclear Dipole Moment: [e a0]
     X:    75.3326      Y:     3.8941      Z:     0.7836

  Electronic Dipole Moment: [e a0]
     X:   -74.7216      Y:    -2.8707      Z:    -0.7331

  Dipole Moment: [e a0]
     X:     0.6110      Y:     1.0234      Z:     0.0504     Total:     1.1930

  Dipole Moment: [D]
     X:     1.5531      Y:     2.6013      Z:     0.1282     Total:     3.0323


*** tstop() called on localhost.localdomain at Thu Jan 17 09:59:56 2019
Module time:
	user time   =     140.52 seconds =       2.34 minutes
	system time =       4.63 seconds =       0.08 minutes
	total time  =          6 seconds =       0.10 minutes
Total time:
	user time   =    4504.37 seconds =      75.07 minutes
	system time =     213.86 seconds =       3.56 minutes
	total time  =        219 seconds =       3.65 minutes

*** tstart() called on localhost.localdomain
*** at Thu Jan 17 09:59:56 2019


         ------------------------------------------------------------
                                   SCF GRAD                          
                          Rob Parrish, Justin Turney,                
                       Andy Simmonett, and Alex Sokolov              
         ------------------------------------------------------------

  ==> Geometry <==

    Molecular point group: c1
    Full point group: C1

    Geometry (in Angstrom), charge = 0, multiplicity = 1:

       Center              X                  Y                   Z               Mass       
    ------------   -----------------  -----------------  -----------------  -----------------
         SI           1.658938955182     1.204964394052     0.017742549477    27.976926532460
         I           -0.954170498251    -0.006065653003    -0.008570974134   126.904472681000
         H            1.002161562842     1.941376226853    -1.060362075027     1.007825032070
         H            1.360250174732     1.448453104781     1.426920017751     1.007825032070
         H            3.104173336951     1.210104311019    -0.248197239252     1.007825032070
         H            0.903126687923    -0.949363653694     0.052703899994     1.007825032070
         C            2.077813476744    -1.114848965626     0.039248668751    12.000000000000
         N            3.093833108382    -1.659806271938    -0.003718773812    14.003074004780

  Nuclear repulsion =  212.830886227343399

  ==> Basis Set <==

  Basis Set: DEF2-TZVP
    Blend: DEF2-TZVP
    Number of shells: 67
    Number of basis function: 173
    Number of Cartesian functions: 197
    Spherical Harmonics?: true
    Max angular momentum: 3

  Core potential: DEF2-TZVP
    Number of shells: 4
    Number of ECP primitives: 29
    Number of ECP core electrons: 28
    Max angular momentum: 3

  ==> DFJKGrad: Density-Fitted SCF Gradients <==

    Gradient:                    1
    J tasked:                  Yes
    K tasked:                  Yes
    wK tasked:                  No
    OpenMP threads:             32
    Integrals threads:          32
    Memory (MB):               375
    Schwarz Cutoff:          0E+00
    Fitting Condition:       1E-12

   => Auxiliary Basis Set <=

  Basis Set: (DEF2-TZVP AUX)
    Blend: DEF2-TZVP-JKFIT
    Number of shells: 158
    Number of basis function: 570
    Number of Cartesian functions: 726
    Spherical Harmonics?: true
    Max angular momentum: 5

  ==> DFT Potential <==

   => Composite Functional: M06-2X <= 

    Hybrid M06-2X Meta-GGA XC Functional

    Y. Zhao and D. G. Truhlar,  Theor. Chem. Acc., 120, 215, 2008


    Deriv               =              1
    GGA                 =           TRUE
    Meta                =           TRUE

    Exchange Hybrid     =           TRUE
    MP2 Hybrid          =          FALSE

   => Exchange Functionals <=

    1.0000   XC_HYB_MGGA_X_M06_2X

   => Exact (HF) Exchange <=

    0.5400               HF 

   => Correlation Functionals <=

    1.0000   XC_MGGA_C_M06_2X

   => Molecular Quadrature <=

    Radial Scheme       =       TREUTLER
    Pruning Scheme      =           FLAT
    Nuclear Scheme      =       TREUTLER

    BS radius alpha     =              1
    Pruning alpha       =              1
    Radial Points       =             75
    Spherical Points    =            302
    Total Points        =         179380
    Total Blocks        =           1406
    Max Points          =            256
    Max Functions       =            164


  -Total Gradient:
     Atom            X                  Y                   Z
    ------   -----------------  -----------------  -----------------
       1        0.009635387150    -0.013045429255     0.001735266976
       2        0.002786265339     0.002326566973     0.000934000267
       3       -0.003659262187    -0.006075270346    -0.001472750397
       4       -0.003181921602    -0.002467523815    -0.000103155611
       5        0.000721222517     0.005221098809     0.000799699332
       6       -0.013338212024    -0.000560765969    -0.000744365313
       7        0.003366999779     0.020387281376    -0.000690647884
       8        0.003395870740    -0.005992167929    -0.000452903625


*** tstop() called on localhost.localdomain at Thu Jan 17 10:00:01 2019
Module time:
	user time   =      64.38 seconds =       1.07 minutes
	system time =       4.50 seconds =       0.07 minutes
	total time  =          5 seconds =       0.08 minutes
Total time:
	user time   =    4568.84 seconds =      76.15 minutes
	system time =     218.37 seconds =       3.64 minutes
	total time  =        224 seconds =       3.73 minutes


  ==> Adding ECP gradient terms (computed numerically) <==

  -ECP Gradient:
     Atom            X                  Y                   Z
    ------   -----------------  -----------------  -----------------
       1        0.007192790032     0.001573323362    -0.000079922658
       2        0.000338153268    -0.004501493939     0.000261623624
       3       -0.001067621209    -0.001092052718     0.000606799121
       4       -0.000604682467    -0.000354856535    -0.000385384353
[...]
	 ---------------------------------------------------------------------------
	Successfully symmetrized geometry.

  ==> Convergence Check <==

  Measures of convergence in internal coordinates in au.
  Criteria marked as inactive (o), active & met (*), and active & unmet ( ).
  ---------------------------------------------------------------------------------------------
   Step     Total Energy     Delta E     MAX Force     RMS Force      MAX Disp      RMS Disp   
  ---------------------------------------------------------------------------------------------
    Convergence Criteria    1.00e-06 *    3.00e-04 *             o    1.20e-03 *             o
  ---------------------------------------------------------------------------------------------
     16    -682.26160647   -5.01e-05      7.84e-04      2.87e-04 o    1.58e-02      6.89e-03 o  ~
  ---------------------------------------------------------------------------------------------

	Writing optimization data to binary file.
	Structure for next step:
	Cartesian Geometry (in Angstrom)
	   SI     1.7164878404   1.2569352837   0.1624171048
	   MN    -0.9564272238  -0.0281024173  -0.0834565320
	    H     1.0194537158   2.2453401426  -0.6647283989
	    H     1.5440850741   1.3078954359   1.6123246508
	    H     3.1237596281   1.2883231169  -0.2679719888
	    H     0.8747187490  -0.7211840486  -0.0773939680
	    C     2.1155301180  -0.9477091834   0.0904585417
	    N     2.9387743426  -1.7369505473   0.2609413549
			--------------------------
			 OPTKING Finished Execution 
			--------------------------

    Structure for next step:
    Molecular point group: c1
    Full point group: C1

    Geometry (in Angstrom), charge = 0, multiplicity = 1:

    SI           1.717576104019     1.256630695891     0.166206123940
    I           -0.955338960186    -0.028407005127    -0.079667512839
    H            1.020541979483     2.245035554803    -0.660939379782
    H            1.545173337707     1.307590848108     1.616113669908
    H            3.124847891735     1.288018529123    -0.264182969649
    H            0.875807012598    -0.721488636405    -0.073604948920
    C            2.116618381673    -0.948013771244     0.094247560789
    N            2.939862606222    -1.737255135109     0.264730374020

gradient() will perform analytic gradient computation.

*** tstart() called on localhost.localdomain
*** at Thu Jan 17 10:23:55 2019

   => Loading Basis Set <=

    Name: DEF2-TZVP
    Role: ORBITAL
    Keyword: BASIS
    atoms 1   entry SI         line   408 file /root/psi4conda/share/psi4/basis/def2-tzvp.gbs 
    atoms 2   entry I          line  2204 (ECP: line  3442) file /root/psi4conda/share/psi4/basis/def2-tzvp.gbs 
    atoms 3-6 entry H          line    15 file /root/psi4conda/share/psi4/basis/def2-tzvp.gbs 
    atoms 7   entry C          line   123 file /root/psi4conda/share/psi4/basis/def2-tzvp.gbs 
    atoms 8   entry N          line   156 file /root/psi4conda/share/psi4/basis/def2-tzvp.gbs 

    !!!  WARNING: ECP capability is in beta. Please check occupations closely.  !!!


         ---------------------------------------------------------
                                   SCF
            by Justin Turney, Rob Parrish, Andy Simmonett
                             and Daniel Smith
                              RKS Reference
                       32 Threads,    500 MiB Core
         ---------------------------------------------------------

  ==> Geometry <==

    Molecular point group: c1
    Full point group: C1

    Geometry (in Angstrom), charge = 0, multiplicity = 1:

       Center              X                  Y                   Z               Mass       
    ------------   -----------------  -----------------  -----------------  -----------------
         SI           1.717576104019     1.256630695891     0.166206123940    27.976926532460
         I           -0.955338960186    -0.028407005127    -0.079667512839   126.904472681000
         H            1.020541979483     2.245035554803    -0.660939379782     1.007825032070
         H            1.545173337707     1.307590848108     1.616113669908     1.007825032070
         H            3.124847891735     1.288018529123    -0.264182969649     1.007825032070
         H            0.875807012598    -0.721488636405    -0.073604948920     1.007825032070
         C            2.116618381673    -0.948013771244     0.094247560789    12.000000000000
         N            2.939862606222    -1.737255135109     0.264730374020    14.003074004780

  Running in c1 symmetry.

  Rotational constants: A =      0.15685  B =      0.04267  C =      0.03397 [cm^-1]
  Rotational constants: A =   4702.17117  B =   1279.32178  C =   1018.50881 [MHz]
  Nuclear repulsion =  212.203449878766946

  Charge       = 0
  Multiplicity = 1
  Electrons    = 56
  Nalpha       = 28
  Nbeta        = 28

  ==> Algorithm <==

  SCF Algorithm Type is DF.
  DIIS enabled.
  MOM disabled.
  Fractional occupation disabled.
  Guess Type is READ.
  Energy threshold   = 1.00e-08
  Density threshold  = 1.00e-08
  Integral threshold = 0.00e+00

  ==> Primary Basis <==

  Basis Set: DEF2-TZVP
    Blend: DEF2-TZVP
    Number of shells: 67
    Number of basis function: 173
    Number of Cartesian functions: 197
    Spherical Harmonics?: true
    Max angular momentum: 3

  Core potential: DEF2-TZVP
    Number of shells: 4
    Number of ECP primitives: 29
    Number of ECP core electrons: 28
    Max angular momentum: 3

  ==> DFT Potential <==

   => Composite Functional: M06-2X <= 

    Hybrid M06-2X Meta-GGA XC Functional

    Y. Zhao and D. G. Truhlar,  Theor. Chem. Acc., 120, 215, 2008


    Deriv               =              1
    GGA                 =           TRUE
    Meta                =           TRUE

    Exchange Hybrid     =           TRUE
    MP2 Hybrid          =          FALSE

   => Exchange Functionals <=

    1.0000   XC_HYB_MGGA_X_M06_2X

   => Exact (HF) Exchange <=

    0.5400               HF 

   => Correlation Functionals <=

    1.0000   XC_MGGA_C_M06_2X

   => Molecular Quadrature <=

    Radial Scheme       =       TREUTLER
    Pruning Scheme      =           FLAT
    Nuclear Scheme      =       TREUTLER

    BS radius alpha     =              1
    Pruning alpha       =              1
    Radial Points       =             75
    Spherical Points    =            302
    Total Points        =         179383
    Total Blocks        =           1411
    Max Points          =            256
    Max Functions       =            164

   => Loading Basis Set <=

    Name: (DEF2-TZVP AUX)
    Role: JKFIT
    Keyword: DF_BASIS_SCF
    atoms 1   entry SI         line   742 file /root/psi4conda/share/psi4/basis/def2-tzvp-jkfit.gbs 
    atoms 2   entry I          line  4985 file /root/psi4conda/share/psi4/basis/def2-tzvp-jkfit.gbs 
    atoms 3-6 entry H          line    23 file /root/psi4conda/share/psi4/basis/def2-tzvp-jkfit.gbs 
    atoms 7   entry C          line   203 file /root/psi4conda/share/psi4/basis/def2-tzvp-jkfit.gbs 
    atoms 8   entry N          line   263 file /root/psi4conda/share/psi4/basis/def2-tzvp-jkfit.gbs 

  Reading orbitals from file 180, no projection.

  ==> Pre-Iterations <==

   -------------------------------------------------------
    Irrep   Nso     Nmo     Nalpha   Nbeta   Ndocc  Nsocc
   -------------------------------------------------------
     A        173     173       0       0       0       0
   -------------------------------------------------------
    Total     173     173      28      28      28       0
   -------------------------------------------------------

  ==> Integral Setup <==

  DFHelper Memory: AOs need 0.168 [GiB]; user supplied 0.366 [GiB]. Using in-core AOs.

  ==> MemDFJK: Density-Fitted J/K Matrices <==

    J tasked:                   Yes
    K tasked:                   Yes
    wK tasked:                   No
    OpenMP threads:              32
    Memory (MB):                375
    Algorithm:                 Core
    Schwarz Cutoff:           1E-12
    Mask sparsity (%):       5.6066
    Fitting Condition:        1E-12

   => Auxiliary Basis Set <=

  Basis Set: (DEF2-TZVP AUX)
    Blend: DEF2-TZVP-JKFIT
    Number of shells: 158
    Number of basis function: 570
    Number of Cartesian functions: 726
    Spherical Harmonics?: true
    Max angular momentum: 5

  Minimum eigenvalue in the overlap matrix is 5.2734820771E-04.
  Using Symmetric Orthogonalization.

  SCF Guess: Orbitals guess was supplied from a previous computation.

  ==> Iterations <==

                           Total Energy        Delta E     RMS |[F,P]|

   @DF-RKS iter   0:  -682.26212284584165   -6.82262e+02   3.78445e-04 
   @DF-RKS iter   1:  -682.26163625045831    4.86595e-04   2.94473e-05 
   @DF-RKS iter   2:  -682.26163816899782   -1.91854e-06   2.23966e-05 DIIS
   @DF-RKS iter   3:  -682.26163932616862   -1.15717e-06   7.62101e-06 DIIS
   @DF-RKS iter   4:  -682.26163942146945   -9.53008e-08   5.26840e-06 DIIS
   @DF-RKS iter   5:  -682.26163943568622   -1.42168e-08   2.93552e-06 DIIS
   @DF-RKS iter   6:  -682.26163943903657   -3.35035e-09   7.49009e-07 DIIS
   @DF-RKS iter   7:  -682.26163943990025   -8.63679e-10   1.20393e-07 DIIS
   @DF-RKS iter   8:  -682.26163943999450   -9.42464e-11   3.18876e-08 DIIS
   @DF-RKS iter   9:  -682.26163944000177   -7.27596e-12   2.22923e-08 DIIS
   @DF-RKS iter  10:  -682.26163944000416   -2.38742e-12   9.62369e-09 DIIS

  ==> Post-Iterations <==

    Orbital Energies [Eh]
    ---------------------

    Doubly Occupied:                                                      

       1A    -67.101724     2A    -14.797561     3A    -10.593281  
       4A     -7.089240     5A     -5.637049     6A     -5.077367  
       7A     -5.075886     8A     -5.073443     9A     -3.950117  
      10A     -3.945166    11A     -3.945066    12A     -2.046304  
      13A     -2.045812    14A     -2.043476    15A     -2.042043  
      16A     -2.041772    17A     -1.049065    18A     -0.792683  
      19A     -0.697125    20A     -0.616721    21A     -0.496230  
      22A     -0.481351    23A     -0.475434    24A     -0.441600  
      25A     -0.429075    26A     -0.334903    27A     -0.324711  
      28A     -0.319888  

    Virtual:                                                              

      29A     -0.101709    30A     -0.006429    31A      0.014872  
      32A      0.031144    33A      0.062161    34A      0.083935  
      35A      0.114327    36A      0.136378    37A      0.150452  
      38A      0.162772    39A      0.178998    40A      0.190888  
      41A      0.194436    42A      0.213419    43A      0.229455  
      44A      0.240650    45A      0.248923    46A      0.257990  
      47A      0.284501    48A      0.306508    49A      0.309574  
      50A      0.320114    51A      0.334840    52A      0.339023  
      53A      0.344941    54A      0.370339    55A      0.407800  
      56A      0.433620    57A      0.456769    58A      0.489287  
      59A      0.508929    60A      0.510085    61A      0.564032  
      62A      0.589282    63A      0.624134    64A      0.658270  
      65A      0.692565    66A      0.710280    67A      0.745104  
      68A      0.835188    69A      0.841386    70A      0.862016  
      71A      0.880957    72A      0.903806    73A      0.924347  
      74A      0.936382    75A      0.939452    76A      0.946833  
      77A      0.959912    78A      0.988212    79A      0.997052  
      80A      1.006205    81A      1.028629    82A      1.057703  
      83A      1.082652    84A      1.086388    85A      1.125276  
      86A      1.150936    87A      1.157060    88A      1.209607  
      89A      1.217787    90A      1.222969    91A      1.253148  
      92A      1.281494    93A      1.297944    94A      1.327549  
      95A      1.361735    96A      1.375083    97A      1.398914  
      98A      1.451361    99A      1.463727   100A      1.487330  
     101A      1.496757   102A      1.517154   103A      1.547894  
     104A      1.556489   105A      1.585967   106A      1.641205  
     107A      1.722771   108A      1.809047   109A      1.825059  
     110A      1.851384   111A      1.887468   112A      1.907756  
     113A      1.970216   114A      1.982191   115A      2.031772  
     116A      2.110440   117A      2.141575   118A      2.171902  
     119A      2.253781   120A      2.274525   121A      2.290851  
     122A      2.314441   123A      2.365428   124A      2.404084  
     125A      2.517393   126A      2.641417   127A      2.677706  
     128A      2.727086   129A      2.775732   130A      2.857709  
     131A      2.897589   132A      2.912330   133A      2.967623  
     134A      3.034509   135A      3.105490   136A      3.150163  
     137A      3.162922   138A      3.165919   139A      3.180599  
     140A      3.185674   141A      3.203745   142A      3.221912  
     143A      3.264068   144A      3.295491   145A      3.350316  
     146A      3.387946   147A      3.461743   148A      3.758201  
     149A      3.948896   150A      3.954884   151A      4.010671  
     152A      4.415896   153A      4.478393   154A      4.532569  
     155A      4.588849   156A      4.611030   157A      4.879803  
     158A      5.041396   159A      5.305357   160A      5.385851  
     161A      5.536476   162A      5.769141   163A      6.201291  
     164A      6.285774   165A      6.355976   166A     10.691424  
     167A     22.582097   168A     32.068577   169A     34.498440  
     170A     34.538850   171A     34.696890   172A     42.832153  
     173A    117.562487  

    Final Occupation by Irrep:
              A 
    DOCC [    28 ]

  Energy converged.

  @DF-RKS Final Energy:  -682.26163944000416

   => Energetics <=

    Nuclear Repulsion Energy =            212.2034498787669463
    One-Electron Energy =               -1468.9064314396639475
    Two-Electron Energy =                 601.6716137572550451
    DFT Exchange-Correlation Energy =     -27.2302716363620547
    Empirical Dispersion Energy =           0.0000000000000000
    VV10 Nonlocal Energy =                  0.0000000000000000
    Total Energy =                       -682.2616394400041600



Properties will be evaluated at   0.000000,   0.000000,   0.000000 [a0]

Properties computed using the SCF density matrix

  Nuclear Dipole Moment: [e a0]
     X:    75.6036      Y:     5.9582      Z:     6.3706

  Electronic Dipole Moment: [e a0]
     X:   -75.2047      Y:    -4.6879      Z:    -6.3567

  Dipole Moment: [e a0]
     X:     0.3989      Y:     1.2703      Z:     0.0139     Total:     1.3315

  Dipole Moment: [D]
     X:     1.0140      Y:     3.2287      Z:     0.0353     Total:     3.3844


*** tstop() called on localhost.localdomain at Thu Jan 17 10:24:03 2019
Module time:
	user time   =     175.06 seconds =       2.92 minutes
	system time =       8.50 seconds =       0.14 minutes
	total time  =          8 seconds =       0.13 minutes
Total time:
	user time   =   34216.26 seconds =     570.27 minutes
	system time =    1618.98 seconds =      26.98 minutes
	total time  =       1666 seconds =      27.77 minutes

*** tstart() called on localhost.localdomain
*** at Thu Jan 17 10:24:03 2019


         ------------------------------------------------------------
                                   SCF GRAD                          
                          Rob Parrish, Justin Turney,                
                       Andy Simmonett, and Alex Sokolov              
         ------------------------------------------------------------

  ==> Geometry <==

    Molecular point group: c1
    Full point group: C1

    Geometry (in Angstrom), charge = 0, multiplicity = 1:

       Center              X                  Y                   Z               Mass       
    ------------   -----------------  -----------------  -----------------  -----------------
         SI           1.717576104019     1.256630695891     0.166206123940    27.976926532460
         I           -0.955338960186    -0.028407005127    -0.079667512839   126.904472681000
         H            1.020541979483     2.245035554803    -0.660939379782     1.007825032070
         H            1.545173337707     1.307590848108     1.616113669908     1.007825032070
         H            3.124847891735     1.288018529123    -0.264182969649     1.007825032070
         H            0.875807012598    -0.721488636405    -0.073604948920     1.007825032070
         C            2.116618381673    -0.948013771244     0.094247560789    12.000000000000
         N            2.939862606222    -1.737255135109     0.264730374020    14.003074004780

  Nuclear repulsion =  212.203449878766946

  ==> Basis Set <==

  Basis Set: DEF2-TZVP
    Blend: DEF2-TZVP
    Number of shells: 67
    Number of basis function: 173
    Number of Cartesian functions: 197
    Spherical Harmonics?: true
    Max angular momentum: 3

  Core potential: DEF2-TZVP
    Number of shells: 4
    Number of ECP primitives: 29
    Number of ECP core electrons: 28
    Max angular momentum: 3

  ==> DFJKGrad: Density-Fitted SCF Gradients <==

    Gradient:                    1
    J tasked:                  Yes
    K tasked:                  Yes
    wK tasked:                  No
    OpenMP threads:             32
    Integrals threads:          32
    Memory (MB):               375
    Schwarz Cutoff:          0E+00
    Fitting Condition:       1E-12

   => Auxiliary Basis Set <=

  Basis Set: (DEF2-TZVP AUX)
    Blend: DEF2-TZVP-JKFIT
    Number of shells: 158
    Number of basis function: 570
    Number of Cartesian functions: 726
    Spherical Harmonics?: true
    Max angular momentum: 5

  ==> DFT Potential <==

   => Composite Functional: M06-2X <= 

    Hybrid M06-2X Meta-GGA XC Functional

    Y. Zhao and D. G. Truhlar,  Theor. Chem. Acc., 120, 215, 2008


    Deriv               =              1
    GGA                 =           TRUE
    Meta                =           TRUE

    Exchange Hybrid     =           TRUE
    MP2 Hybrid          =          FALSE

   => Exchange Functionals <=

    1.0000   XC_HYB_MGGA_X_M06_2X

   => Exact (HF) Exchange <=

    0.5400               HF 

   => Correlation Functionals <=

    1.0000   XC_MGGA_C_M06_2X

   => Molecular Quadrature <=

    Radial Scheme       =       TREUTLER
    Pruning Scheme      =           FLAT
    Nuclear Scheme      =       TREUTLER

    BS radius alpha     =              1
    Pruning alpha       =              1
    Radial Points       =             75
    Spherical Points    =            302
    Total Points        =         179383
    Total Blocks        =           1411
    Max Points          =            256
    Max Functions       =            164


  -Total Gradient:
     Atom            X                  Y                   Z
    ------   -----------------  -----------------  -----------------
       1       -0.005719431698    -0.000935296112     0.000085985591
       2       -0.006545818737     0.005029316950     0.001695228607
       3        0.001024900643     0.000881975655    -0.000539473511
       4        0.000292739254     0.000002550581     0.000148240132
       5       -0.000073238201     0.000085113749    -0.000026791777
       6        0.011290334383    -0.003539295833    -0.002078856107
       7       -0.000272591379    -0.001658553159     0.000312059974
       8       -0.000142223958     0.000004728440     0.000462647160


*** tstop() called on localhost.localdomain at Thu Jan 17 10:24:09 2019
Module time:
	user time   =      72.21 seconds =       1.20 minutes
	system time =       4.69 seconds =       0.08 minutes
	total time  =          6 seconds =       0.10 minutes
Total time:
	user time   =   34288.54 seconds =     571.48 minutes
	system time =    1623.68 seconds =      27.06 minutes
	total time  =       1672 seconds =      27.87 minutes


  ==> Adding ECP gradient terms (computed numerically) <==
