
    -----------------------------------------------------------------------
          Psi4: An Open-Source Ab Initio Electronic Structure Package
                               Psi4 1.2.1 release

                         Git: Rev {HEAD} 406f4de 


    R. M. Parrish, L. A. Burns, D. G. A. Smith, A. C. Simmonett,
    A. E. DePrince III, E. G. Hohenstein, U. Bozkaya, A. Yu. Sokolov,
    R. Di Remigio, R. M. Richard, J. F. Gonthier, A. M. James,
    H. R. McAlexander, A. Kumar, M. Saitow, X. Wang, B. P. Pritchard,
    P. Verma, H. F. Schaefer III, K. Patkowski, R. A. King, E. F. Valeev,
    F. A. Evangelista, J. M. Turney, T. D. Crawford, and C. D. Sherrill,
    J. Chem. Theory Comput. 13(7) pp 3185--3197 (2017).
    (doi: 10.1021/acs.jctc.7b00174)


                         Additional Contributions by
    P. Kraus, H. Kruse, M. H. Lechner, M. C. Schieber, and R. A. Shaw

    -----------------------------------------------------------------------


    Psi4 started on: Monday, 14 January 2019 05:03PM

    Process ID: 22086
    Host:       localhost.localdomain
    PSIDATADIR: /root/psi4conda/share/psi4
    Memory:     500.0 MiB
    Threads:    1
    
  ==> Input File <==

--------------------------------------------------------------------------
molecule{
0 1
 N  -0.9212862016   0.2426167092   0.5919490556  
 N   1.3937572257  -0.2598049576  -0.0333292051  
 O   0.5313915150  -0.8600141985  -0.8741478520  
 C  -0.9374945439  -0.6165350072  -0.3631641670  
 O  -1.7079703465  -1.2838484964  -1.0001613920  
 C   0.7280376494   1.9429916745  -0.8859546938  
 C   1.9145706569  -1.1443581281   0.9946128356  
 H   1.0758410188  -1.4655957906   1.6131569551  
 H   2.3699591919  -1.9996563756   0.5048508128  
 H   2.6527357465  -0.6129868592   1.5891524340  
 C  -2.2114750416   0.6712669187   1.0915356359  
 H  -3.0228756920   0.0891213561   0.6472964044  
 H  -2.2537464013   0.5632990528   2.1762285376  
 H  -2.3846517311   1.7267248678   0.8614878303  
 C   1.2190338205   1.0069292021   0.1508177612  
 H   0.2531976761   1.4128634817  -1.7042302426  
 H   0.0233823665   2.6395548385  -0.4377973746  
 H   1.5826575837   2.5155197173  -1.2579510805  
 H   1.7109845070   1.4124339945   1.0280247451  

}

set{
   basis 6-31+G(d)
   freeze_core True
   opt_type ts
}

optimize('mp2')
--------------------------------------------------------------------------
gradient() will perform analytic gradient computation.

*** tstart() called on localhost.localdomain
*** at Mon Jan 14 17:03:49 2019

    SCF Algorithm Type (re)set to DF.

*** tstart() called on localhost.localdomain
*** at Mon Jan 14 17:03:49 2019

   => Loading Basis Set <=

    Name: 6-31+G(D)
    Role: ORBITAL
    Keyword: BASIS
    atoms 1-2                entry N          line   138 file /root/psi4conda/share/psi4/basis/6-31pg_d_.gbs 
    atoms 3, 5               entry O          line   157 file /root/psi4conda/share/psi4/basis/6-31pg_d_.gbs 
    atoms 4, 6-7, 11, 15     entry C          line   119 file /root/psi4conda/share/psi4/basis/6-31pg_d_.gbs 
    atoms 8-10, 12-14, 16-19 entry H          line    46 file /root/psi4conda/share/psi4/basis/6-31pg_d_.gbs 


         ---------------------------------------------------------
                                   SCF
            by Justin Turney, Rob Parrish, Andy Simmonett
                             and Daniel Smith
                              RHF Reference
                        1 Threads,    500 MiB Core
         ---------------------------------------------------------

  ==> Geometry <==

    Molecular point group: c1
    Full point group: C1

    Geometry (in Angstrom), charge = 0, multiplicity = 1:

       Center              X                  Y                   Z               Mass       
    ------------   -----------------  -----------------  -----------------  -----------------
         N           -0.908770518229     0.287803398200     0.632259503412    14.003074004780
         N            1.406272909071    -0.214618268600     0.006981242712    14.003074004780
         O            0.543907198371    -0.814827509500    -0.833837404188    15.994914619560
         C           -0.924978860529    -0.571348318200    -0.322853719188    12.000000000000
         O           -1.695454663129    -1.238661807400    -0.959850944188    15.994914619560
         C            0.740553332771     1.988178363500    -0.845644245988    12.000000000000
         C            1.927086340271    -1.099171439100     1.034923283412    12.000000000000
         H            1.088356702171    -1.420409101600     1.653467402912     1.007825032070
         H            2.382474875271    -1.954469686600     0.545161260612     1.007825032070
         H            2.665251429871    -0.567800170200     1.629462881812     1.007825032070
         C           -2.198959358229     0.716453607700     1.131846083712    12.000000000000
         H           -3.010360008629     0.134308045100     0.687606852212     1.007825032070
         H           -2.241230717929     0.608485741800     2.216538985412     1.007825032070
         H           -2.372136047729     1.771911556800     0.901798278112     1.007825032070
         C            1.231549503871     1.052115891100     0.191128209012    12.000000000000
         H            0.265713359471     1.458050170700    -1.663919794788     1.007825032070
         H            0.035898049871     2.684741527500    -0.397486926788     1.007825032070
         H            1.595173267071     2.560706406300    -1.217640632688     1.007825032070
         H            1.723500190371     1.457620683500     1.068335192912     1.007825032070

  Running in c1 symmetry.

  Rotational constants: A =      0.07106  B =      0.04756  C =      0.04033 [cm^-1]
  Rotational constants: A =   2130.22400  B =   1425.68071  C =   1208.94618 [MHz]
  Nuclear repulsion =  489.752803953702198

  Charge       = 0
  Multiplicity = 1
  Electrons    = 70
  Nalpha       = 35
  Nbeta        = 35

  ==> Algorithm <==

  SCF Algorithm Type is DF.
  DIIS enabled.
  MOM disabled.
  Fractional occupation disabled.
  Guess Type is SAD.
  Energy threshold   = 1.00e-10
  Density threshold  = 1.00e-10
  Integral threshold = 0.00e+00

  ==> Primary Basis <==

  Basis Set: 6-31+G(D)
    Blend: 6-31+G(D)
    Number of shells: 92
    Number of basis function: 191
    Number of Cartesian functions: 191
    Spherical Harmonics?: false
    Max angular momentum: 2

   => Loading Basis Set <=

    Name: (6-31+G(D) AUX)
    Role: JKFIT
    Keyword: DF_BASIS_SCF
    atoms 1-2                entry N          line   252 file /root/psi4conda/share/psi4/basis/heavy-aug-cc-pvdz-jkfit.gbs 
    atoms 3, 5               entry O          line   310 file /root/psi4conda/share/psi4/basis/heavy-aug-cc-pvdz-jkfit.gbs 
    atoms 4, 6-7, 11, 15     entry C          line   194 file /root/psi4conda/share/psi4/basis/heavy-aug-cc-pvdz-jkfit.gbs 
    atoms 8-10, 12-14, 16-19 entry H          line   116 file /root/psi4conda/share/psi4/basis/heavy-aug-cc-pvdz-jkfit.gbs 

  ==> Pre-Iterations <==

   -------------------------------------------------------
    Irrep   Nso     Nmo     Nalpha   Nbeta   Ndocc  Nsocc
   -------------------------------------------------------
     A        191     191       0       0       0       0
   -------------------------------------------------------
    Total     191     191      35      35      35       0
   -------------------------------------------------------

  ==> Integral Setup <==

  ==> DiskDFJK: Density-Fitted J/K Matrices <==

    J tasked:                  Yes
    K tasked:                  Yes
    wK tasked:                  No
    OpenMP threads:              1
    Integrals threads:           1
    Memory (MB):               375
    Algorithm:                Core
    Integral Cache:           NONE
    Schwarz Cutoff:          1E-12
    Fitting Condition:       1E-12

   => Auxiliary Basis Set <=

  Basis Set: (6-31+G(D) AUX)
    Blend: HEAVY-AUG-CC-PVDZ-JKFIT
    Number of shells: 342
    Number of basis function: 1159
    Number of Cartesian functions: 1159
    Spherical Harmonics?: false
    Max angular momentum: 3

  Minimum eigenvalue in the overlap matrix is 5.3983609441E-05.
  Using Symmetric Orthogonalization.

  SCF Guess: Superposition of Atomic Densities via on-the-fly atomic UHF.

  ==> Iterations <==

                           Total Energy        Delta E     RMS |[F,P]|

   @DF-RHF iter   0:  -457.03460731655764   -4.57035e+02   2.90111e-02 
   @DF-RHF iter   1:  -453.39082355245387    3.64378e+00   3.39614e-03 
   @DF-RHF iter   2:  -453.59377452652467   -2.02951e-01   2.01325e-03 DIIS
   @DF-RHF iter   3:  -453.65485053462055   -6.10760e-02   5.51165e-04 DIIS
   @DF-RHF iter   4:  -453.66426613991820   -9.41561e-03   1.78511e-04 DIIS
   @DF-RHF iter   5:  -453.66531276193581   -1.04662e-03   7.09101e-05 DIIS
   @DF-RHF iter   6:  -453.66555503349787   -2.42272e-04   2.76886e-05 DIIS
   @DF-RHF iter   7:  -453.66559687950621   -4.18460e-05   1.11543e-05 DIIS
   @DF-RHF iter   8:  -453.66560215208295   -5.27258e-06   3.75802e-06 DIIS
   @DF-RHF iter   9:  -453.66560299499537   -8.42912e-07   1.56213e-06 DIIS
   @DF-RHF iter  10:  -453.66560312585500   -1.30860e-07   5.97307e-07 DIIS
   @DF-RHF iter  11:  -453.66560315407798   -2.82230e-08   2.27735e-07 DIIS
   @DF-RHF iter  12:  -453.66560315734415   -3.26617e-09   9.56104e-08 DIIS
   @DF-RHF iter  13:  -453.66560315784352   -4.99369e-10   3.28790e-08 DIIS
   @DF-RHF iter  14:  -453.66560315790326   -5.97424e-11   1.37381e-08 DIIS
   @DF-RHF iter  15:  -453.66560315790974   -6.48015e-12   6.06904e-09 DIIS
   @DF-RHF iter  16:  -453.66560315791492   -5.17275e-12   2.52758e-09 DIIS
   @DF-RHF iter  17:  -453.66560315791611   -1.19371e-12   1.07696e-09 DIIS
   @DF-RHF iter  18:  -453.66560315791787   -1.76215e-12   3.37185e-10 DIIS
   @DF-RHF iter  19:  -453.66560315791446    3.41061e-12   1.75428e-10 DIIS
   @DF-RHF iter  20:  -453.66560315791759   -3.12639e-12   7.35450e-11 DIIS

  ==> Post-Iterations <==

    Orbital Energies [Eh]
    ---------------------

    Doubly Occupied:                                                      

       1A    -20.619381     2A    -20.509448     3A    -15.707000  
       4A    -15.517845     5A    -11.381862     6A    -11.364117  
       7A    -11.295573     8A    -11.267405     9A    -11.231675  
      10A     -1.492029    11A     -1.363943    12A     -1.222629  
      13A     -1.185638    14A     -1.081671    15A     -0.982825  
      16A     -0.926925    17A     -0.846992    18A     -0.760706  
      19A     -0.734496    20A     -0.703245    21A     -0.669890  
      22A     -0.630969    23A     -0.624223    24A     -0.610974  
      25A     -0.596814    26A     -0.592058    27A     -0.585213  
      28A     -0.573102    29A     -0.544859    30A     -0.534865  
      31A     -0.490222    32A     -0.464624    33A     -0.437886  
      34A     -0.372560    35A     -0.337762  

    Virtual:                                                              

      36A      0.046944    37A      0.069636    38A      0.071300  
      39A      0.079650    40A      0.090040    41A      0.102536  
      42A      0.110976    43A      0.114327    44A      0.116202  
      45A      0.127139    46A      0.137291    47A      0.144307  
      48A      0.156961    49A      0.162062    50A      0.171414  
      51A      0.179123    52A      0.185177    53A      0.194479  
      54A      0.209602    55A      0.220068    56A      0.236897  
      57A      0.251991    58A      0.262607    59A      0.287162  
      60A      0.298091    61A      0.314728    62A      0.321848  
      63A      0.329907    64A      0.340843    65A      0.355474  
      66A      0.360141    67A      0.367436    68A      0.373007  
      69A      0.378951    70A      0.381667    71A      0.392379  
      72A      0.405613    73A      0.408186    74A      0.416214  
      75A      0.425463    76A      0.442285    77A      0.448512  
      78A      0.456661    79A      0.470562    80A      0.473305  
      81A      0.484207    82A      0.494392    83A      0.506876  
      84A      0.530630    85A      0.547811    86A      0.559625  
      87A      0.586229    88A      0.592167    89A      0.607370  
      90A      0.678985    91A      0.827577    92A      0.843564  
      93A      0.864350    94A      0.901072    95A      0.913316  
      96A      0.946810    97A      0.950969    98A      0.961584  
      99A      0.978270   100A      0.990357   101A      1.009352  
     102A      1.011943   103A      1.040499   104A      1.070817  
     105A      1.111290   106A      1.145649   107A      1.161509  
     108A      1.184752   109A      1.187464   110A      1.204556  
     111A      1.217674   112A      1.246326   113A      1.246887  
     114A      1.257681   115A      1.281284   116A      1.301151  
     117A      1.330319   118A      1.344429   119A      1.352445  
     120A      1.373819   121A      1.404922   122A      1.447205  
     123A      1.467446   124A      1.495625   125A      1.513774  
     126A      1.558375   127A      1.604510   128A      1.623720  
     129A      1.626647   130A      1.639567   131A      1.661268  
     132A      1.677868   133A      1.713263   134A      1.717466  
     135A      1.731989   136A      1.791832   137A      1.836843  
     138A      1.852964   139A      1.887049   140A      1.929462  
     141A      1.946945   142A      1.981348   143A      2.015315  
     144A      2.048848   145A      2.139847   146A      2.148871  
     147A      2.180718   148A      2.221850   149A      2.240904  
     150A      2.250112   151A      2.295912   152A      2.328793  
     153A      2.351080   154A      2.366904   155A      2.420290  
     156A      2.429006   157A      2.487783   158A      2.500385  
     159A      2.549409   160A      2.563061   161A      2.572842  
     162A      2.580772   163A      2.598447   164A      2.628962  
     165A      2.658457   166A      2.705925   167A      2.724251  
     168A      2.756369   169A      2.797815   170A      2.828470  
     171A      2.896228   172A      2.951202   173A      3.072284  
     174A      3.156766   175A      3.169831   176A      3.194937  
     177A      3.218877   178A      3.280710   179A      3.398710  
     180A      3.516609   181A      3.555069   182A      3.737017  
     183A      4.579344   184A      4.661302   185A      4.687028  
     186A      4.788423   187A      4.853347   188A      4.883630  
     189A      4.900884   190A      5.035280   191A      5.133987  

    Final Occupation by Irrep:
              A 
    DOCC [    35 ]

  Energy converged.

  @DF-RHF Final Energy:  -453.66560315791759

   => Energetics <=

    Nuclear Repulsion Energy =            489.7528039537021982
    One-Electron Energy =               -1590.3139594027106796
    Two-Electron Energy =                 646.8955522910908940
    Total Energy =                       -453.6656031579176442



Properties will be evaluated at   0.000000,   0.000000,   0.000000 [a0]

Properties computed using the SCF density matrix

  Nuclear Dipole Moment: [e a0]
     X:     1.9923      Y:     6.3020      Z:     5.0737

  Electronic Dipole Moment: [e a0]
     X:     0.4116      Y:    -4.5220      Z:    -3.7801

  Dipole Moment: [e a0]
     X:     2.4039      Y:     1.7800      Z:     1.2936     Total:     3.2589

  Dipole Moment: [D]
     X:     6.1101      Y:     4.5243      Z:     3.2880     Total:     8.2833


*** tstop() called on localhost.localdomain at Mon Jan 14 17:04:05 2019
Module time:
	user time   =      14.76 seconds =       0.25 minutes
	system time =       0.43 seconds =       0.01 minutes
	total time  =         16 seconds =       0.27 minutes
Total time:
	user time   =      14.76 seconds =       0.25 minutes
	system time =       0.43 seconds =       0.01 minutes
	total time  =         16 seconds =       0.27 minutes

  //>>>>>>>>>>>>>>>>>>>>>>>>>>>>>>>>>>>//
  //               DFMP2               //
  //<<<<<<<<<<<<<<<<<<<<<<<<<<<<<<<<<<<//

   => Loading Basis Set <=

    Name: (6-31+G(D) AUX)
    Role: RIFIT
    Keyword: DF_BASIS_MP2
    atoms 1-2                entry N          line   162 file /root/psi4conda/share/psi4/basis/heavy-aug-cc-pvdz-ri.gbs 
    atoms 3, 5               entry O          line   208 file /root/psi4conda/share/psi4/basis/heavy-aug-cc-pvdz-ri.gbs 
    atoms 4, 6-7, 11, 15     entry C          line   116 file /root/psi4conda/share/psi4/basis/heavy-aug-cc-pvdz-ri.gbs 
    atoms 8-10, 12-14, 16-19 entry H          line    44 file /root/psi4conda/share/psi4/basis/heavy-aug-cc-pvdz-ri.gbs 

	 --------------------------------------------------------
	                          DF-MP2                         
	      2nd-Order Density-Fitted Moller-Plesset Theory     
	              RMP2 Wavefunction,   1 Threads             
	                                                         
	        Rob Parrish, Justin Turney, Andy Simmonett,      
	           Ed Hohenstein, and C. David Sherrill          
	 --------------------------------------------------------

   => Auxiliary Basis Set <=

  Basis Set: (6-31+G(D) AUX)
    Blend: HEAVY-AUG-CC-PVDZ-RI
    Number of shells: 258
    Number of basis function: 788
    Number of Cartesian functions: 924
    Spherical Harmonics?: true
    Max angular momentum: 3

	 --------------------------------------------------------
	                 NBF =   191, NAUX =   788
	 --------------------------------------------------------
	   CLASS    FOCC     OCC    AOCC    AVIR     VIR    FVIR
	   PAIRS       9      35      26     156     156       0
	 --------------------------------------------------------


         ------------------------------------------------------------
                                     CPHF                           
                                  Rob Parrish                       
         ------------------------------------------------------------

  ==> Geometry <==

    Molecular point group: c1
    Full point group: C1

    Geometry (in Angstrom), charge = 0, multiplicity = 1:

       Center              X                  Y                   Z               Mass       
    ------------   -----------------  -----------------  -----------------  -----------------
         N           -0.908770518229     0.287803398200     0.632259503412    14.003074004780
         N            1.406272909071    -0.214618268600     0.006981242712    14.003074004780
         O            0.543907198371    -0.814827509500    -0.833837404188    15.994914619560
         C           -0.924978860529    -0.571348318200    -0.322853719188    12.000000000000
         O           -1.695454663129    -1.238661807400    -0.959850944188    15.994914619560
         C            0.740553332771     1.988178363500    -0.845644245988    12.000000000000
         C            1.927086340271    -1.099171439100     1.034923283412    12.000000000000
         H            1.088356702171    -1.420409101600     1.653467402912     1.007825032070
         H            2.382474875271    -1.954469686600     0.545161260612     1.007825032070
         H            2.665251429871    -0.567800170200     1.629462881812     1.007825032070
         C           -2.198959358229     0.716453607700     1.131846083712    12.000000000000
         H           -3.010360008629     0.134308045100     0.687606852212     1.007825032070
         H           -2.241230717929     0.608485741800     2.216538985412     1.007825032070
         H           -2.372136047729     1.771911556800     0.901798278112     1.007825032070
         C            1.231549503871     1.052115891100     0.191128209012    12.000000000000
         H            0.265713359471     1.458050170700    -1.663919794788     1.007825032070
         H            0.035898049871     2.684741527500    -0.397486926788     1.007825032070
         H            1.595173267071     2.560706406300    -1.217640632688     1.007825032070
         H            1.723500190371     1.457620683500     1.068335192912     1.007825032070

  Nuclear repulsion =  489.752803953702198
  Reference energy  = -453.665603157917587

  ==> Basis Set <==

  Basis Set: 6-31+G(D)
    Blend: 6-31+G(D)
    Number of shells: 92
    Number of basis function: 191
    Number of Cartesian functions: 191
    Spherical Harmonics?: false
    Max angular momentum: 2

  ==> CGRSolver (by Rob Parrish) <==

   Number of roots    =         1
   Preconditioning    =    JACOBI
   Convergence cutoff =     1E-06
   Maximum iterations =       100

  ==> CPHFRHamiltonian (by Rob Parrish) <== 

  ==> DiskDFJK: Density-Fitted J/K Matrices <==

    J tasked:                  Yes
    K tasked:                  Yes
    wK tasked:                  No
    OpenMP threads:              1
    Integrals threads:           1
    Memory (MB):               375
    Algorithm:                Core
    Integral Cache:           NONE
    Schwarz Cutoff:          1E-12
    Fitting Condition:       1E-12

   => Auxiliary Basis Set <=

  Basis Set: (6-31+G(D) AUX)
    Blend: HEAVY-AUG-CC-PVDZ-JKFIT
    Number of shells: 342
    Number of basis function: 1159
    Number of Cartesian functions: 1159
    Spherical Harmonics?: false
    Max angular momentum: 3

  ==> CPHF Iterations <==

  => Iterations <=

             Iter  Converged  Remaining    Residual
  CGR           1          0          1   1.725E-01
  CGR           2          0          1   5.211E-02
  CGR           3          0          1   2.536E-02
  CGR           4          0          1   7.882E-03
  CGR           5          0          1   3.708E-03
  CGR           6          0          1   1.125E-03
  CGR           7          0          1   5.237E-04
  CGR           8          0          1   1.904E-04
  CGR           9          0          1   6.394E-05
  CGR          10          0          1   2.022E-05
  CGR          11          0          1   6.194E-06
  CGR          12          0          1   2.095E-06
  CGR          13          1          0   7.920E-07

    CGRSolver converged.

  ==> DFCorrGrad: Density-Fitted Correlated Gradients <==

    OpenMP threads:              1
    Integrals threads:           1
    Memory (MB):               375
    Schwarz Cutoff:          0E+00
    Fitting Condition:       1E-12

   => Auxiliary Basis Set <=

  Basis Set: (6-31+G(D) AUX)
    Blend: HEAVY-AUG-CC-PVDZ-JKFIT
    Number of shells: 342
    Number of basis function: 1159
    Number of Cartesian functions: 1159
    Spherical Harmonics?: false
    Max angular momentum: 3

	-----------------------------------------------------------
	 ==================> DF-MP2 Energies <==================== 
	-----------------------------------------------------------
	 Reference Energy          =    -453.6656031579175874 [Eh]
	 Singles Energy            =      -0.0000000000000001 [Eh]
	 Same-Spin Energy          =      -0.3598052449365477 [Eh]
	 Opposite-Spin Energy      =      -0.9960732735172031 [Eh]
	 Correlation Energy        =      -1.3558785184537507 [Eh]
	 Total Energy              =    -455.0214816763713657 [Eh]
	-----------------------------------------------------------
	 ================> DF-SCS-MP2 Energies <================== 
	-----------------------------------------------------------
	 SCS Same-Spin Scale       =       0.3333333333333333 [-]
	 SCS Opposite-Spin Scale   =       1.2000000000000000 [-]
	 SCS Same-Spin Energy      =      -0.1199350816455159 [Eh]
	 SCS Opposite-Spin Energy  =      -1.1952879282206437 [Eh]
	 SCS Correlation Energy    =      -1.3152230098661595 [Eh]
	 SCS Total Energy          =    -454.9808261677837322 [Eh]
	-----------------------------------------------------------


  -Total Gradient:
     Atom            X                  Y                   Z
    ------   -----------------  -----------------  -----------------
       1       -0.006716888421    -0.011041431111    -0.012920454668
       2       -0.008066242366     0.006125722464    -0.005060203920
       3       -0.004211236447     0.009242150127     0.014163008763
       4       -0.010233993817    -0.013191259451    -0.012387594249
       5        0.024562573609     0.023507242384     0.022431803642
       6       -0.000865444492     0.000549106158    -0.000718205066
       7       -0.000802933365     0.002503157410    -0.002336507902
       8        0.002087149940     0.000686997144    -0.001200098289
       9       -0.001130923186     0.001990484396     0.001898147869
      10       -0.002202834005    -0.001790149121    -0.001358954023
      11        0.003602934044    -0.001414523099    -0.000973838332
      12        0.002577642077     0.001951569612     0.001211973916
      13       -0.000718546392     0.000755813221    -0.002785277342
      14       -0.000296035080    -0.002620994071     0.001101016411
      15        0.003156385996    -0.012843875328    -0.002457208132
      16        0.001603825872     0.001018495920     0.002660011152
      17        0.002173187827    -0.002161450832    -0.001031422537
      18       -0.002241321059    -0.001836976865     0.001837789151
      19       -0.002277300735    -0.001430078951    -0.002073986436


*** tstop() called on localhost.localdomain at Mon Jan 14 17:04:46 2019
Module time:
	user time   =      55.02 seconds =       0.92 minutes
	system time =       1.99 seconds =       0.03 minutes
	total time  =         57 seconds =       0.95 minutes
Total time:
	user time   =      55.02 seconds =       0.92 minutes
	system time =       1.99 seconds =       0.03 minutes
	total time  =         57 seconds =       0.95 minutes

			-----------------------------------------
			 OPTKING 2.0: for geometry optimizations 
			  - R.A. King,  Bethel University        
			-----------------------------------------

	Internal coordinates to be generated automatically.
	Detected frag 1 with atoms:  1 2 3 4 5 6 7 8 9 10 11 12 13 14 15 16 17 18 19
	---Fragment 1 Bond Connectivity---
	 1 : 4 11
	 2 : 3 7 15
	 3 : 2 4
	 4 : 1 3 5
	 5 : 4
	 6 : 15 16 17 18
	 7 : 2 8 9 10
	 8 : 7
	 9 : 7
	 10 : 7
	 11 : 1 12 13 14
	 12 : 11
	 13 : 11
	 14 : 11
	 15 : 2 6 19
	 16 : 6
	 17 : 6
	 18 : 6
	 19 : 15

	---Fragment 1 Geometry and Gradient---
	 N          -1.7173273971        0.5438696027        1.1947973064
	 N           2.6574706662       -0.4055697508        0.0131926368
	 O           1.0278356466       -1.5398008385       -1.5757243333
	 C          -1.7479567251       -1.0796918479       -0.6101051102
	 O          -3.2039449840       -2.3407315873       -1.8138554129
	 C           1.3994429857        3.7571126103       -1.5980360308
	 C           3.6416654175       -2.0771329930        1.9557215742
	 H           2.0566961020       -2.6841841987        3.1246005612
	 H           4.5022250327       -3.6934124427        1.0302054808
	 H           5.0365952777       -1.0729868199        3.0792385903
	 C          -4.1554309644        1.3539011055        2.1388791228
	 H          -5.6887559777        0.2538054227        1.2993886378
	 H          -4.2353122575        1.1498714078        4.1886516453
	 H          -4.4826874802        3.3484275740        1.7041517727
	 C           2.3272912814        1.9882108942        0.3611799713
	 H           0.5021254792        2.7553155106       -3.1443527192
	 H           0.0678374830        5.0734262246       -0.7511414330
	 H           3.0144406093        4.8390338146       -2.3010073241
	 H           3.2569433498        2.7545038974        2.0188609327
	            -0.0067168884       -0.0110414311       -0.0129204547
	            -0.0080662424        0.0061257225       -0.0050602039
	            -0.0042112364        0.0092421501        0.0141630088
	            -0.0102339938       -0.0131912595       -0.0123875942
	             0.0245625736        0.0235072424        0.0224318036
	            -0.0008654445        0.0005491062       -0.0007182051
	            -0.0008029334        0.0025031574       -0.0023365079
	             0.0020871499        0.0006869971       -0.0012000983
	            -0.0011309232        0.0019904844        0.0018981479
	            -0.0022028340       -0.0017901491       -0.0013589540
	             0.0036029340       -0.0014145231       -0.0009738383
	             0.0025776421        0.0019515696        0.0012119739
	            -0.0007185464        0.0007558132       -0.0027852773
	            -0.0002960351       -0.0026209941        0.0011010164
	             0.0031563860       -0.0128438753       -0.0024572081
	             0.0016038259        0.0010184959        0.0026600112
	             0.0021731878       -0.0021614508       -0.0010314225
	            -0.0022413211       -0.0018369769        0.0018377892
	            -0.0022773007       -0.0014300790       -0.0020739864

	Previous optimization step data not found.  Starting new optimization.

	---Fragment 1 Intrafragment Coordinates---
	 - Coordinate -           - BOHR/RAD -       - ANG/DEG -
	 R(1,4)           =         2.427872	       1.284775
	 R(1,11)          =         2.737114	       1.448418
	 R(2,3)           =         2.543000	       1.345697
	 R(2,7)           =         2.745211	       1.452703
	 R(2,15)          =         2.441372	       1.291919
	 R(3,4)           =         2.974751	       1.574170
	 R(4,5)           =         2.271374	       1.201959
	 R(6,15)          =         2.797936	       1.480604
	 R(6,16)          =         2.049359	       1.084474
	 R(6,17)          =         2.055015	       1.087467
	 R(6,18)          =         2.067109	       1.093867
	 R(7,8)           =         2.060805	       1.090531
	 R(7,9)           =         2.051707	       1.085717
	 R(7,10)          =         2.053395	       1.086610
	 R(11,12)         =         2.065440	       1.092984
	 R(11,13)         =         2.061450	       1.090872
	 R(11,14)         =         2.067419	       1.094031
	 R(15,19)         =         2.049235	       1.084408
	 B(1,4,3)         =         1.910252	     109.449384
	 B(1,4,5)         =         2.454877	     140.654103
	 B(1,11,12)       =         1.942772	     111.312638
	 B(1,11,13)       =         1.926437	     110.376713
	 B(1,11,14)       =         1.932621	     110.731036
	 B(2,3,4)         =         1.903040	     109.036168
	 B(2,7,8)         =         1.880716	     107.757073
	 B(2,7,9)         =         1.886885	     108.110549
	 B(2,7,10)        =         1.910229	     109.448075
	 B(2,15,6)        =         2.171147	     124.397546
	 B(2,15,19)       =         2.004903	     114.872453
	 B(3,2,7)         =         1.982630	     113.596344
	 B(3,2,15)        =         2.026081	     116.085912
	 B(3,4,5)         =         1.917971	     109.891652
	 B(4,1,11)        =         2.029829	     116.300633
	 B(6,15,19)       =         2.071987	     118.716082
	 B(7,2,15)        =         2.146777	     123.001282
	 B(8,7,9)         =         1.924521	     110.266920
	 B(8,7,10)        =         1.934974	     110.865871
	 B(9,7,10)        =         1.925292	     110.311109
	 B(12,11,13)      =         1.899336	     108.823959
	 B(12,11,14)      =         1.886898	     108.111316
	 B(13,11,14)      =         1.873849	     107.363612
	 B(15,6,16)       =         1.943898	     111.377125
	 B(15,6,17)       =         1.908440	     109.345583
	 B(15,6,18)       =         1.885932	     108.055943
	 B(16,6,17)       =         1.918086	     109.898232
	 B(16,6,18)       =         1.919142	     109.958737
	 B(17,6,18)       =         1.887196	     108.128384
	 D(1,4,3,2)       =         0.163733	       9.381217
	 D(2,3,4,5)       =        -2.988874	    -171.249855
	 D(2,15,6,16)     =         0.302162	      17.312587
	 D(2,15,6,17)     =         2.425434	     138.967112
	 D(2,15,6,18)     =        -1.807493	    -103.561731
	 D(3,2,7,8)       =        -1.105048	     -63.314573
	 D(3,2,7,9)       =         0.974877	      55.856343
	 D(3,2,7,10)      =         3.072499	     176.041200
	 D(3,2,15,6)      =        -0.588387	     -33.712093
	 D(3,2,15,19)     =         2.839750	     162.705708
	 D(3,4,1,11)      =         3.044985	     174.464792
	 D(4,1,11,12)     =         0.124235	       7.118121
	 D(4,1,11,13)     =         2.235314	     128.074032
	 D(4,1,11,14)     =        -1.975304	    -113.176583
	 D(4,3,2,7)       =         1.649909	      94.532799
	 D(4,3,2,15)      =        -0.987610	     -56.585885
	 D(5,4,1,11)      =        -0.080271	      -4.599192
	 D(6,15,2,7)      =         3.109170	     178.142326
	 D(7,2,15,19)     =         0.254122	      14.560127
	 D(8,7,2,15)      =         1.492909	      85.537404
	 D(9,7,2,15)      =        -2.710351	    -155.291680
	 D(10,7,2,15)     =        -0.612730	     -35.106823
	 D(16,6,15,19)    =        -3.136149	    -179.688120
	 D(17,6,15,19)    =        -1.012877	     -58.033594
	 D(18,6,15,19)    =         1.037381	      59.437563
	 R(1,6)           =         5.276278	       2.792086
	 R(1,7)           =         6.013939	       3.182440
	 R(1,15)          =         4.374926	       2.315111
	 R(4,6)           =         5.854640	       3.098142
	 R(6,11)          =         7.113128	       3.764105
	 R(11,15)         =         6.751907	       3.572955

	Current energy   :      -455.0214816764

	Generating empirical Hessian (Schlegel '84) for each fragment.
	Taking PRFO optimization step.
	Maximizing along 1 lowest eigenvalue of Hessian.

 RFO min eigenvalues
 -0.004198 -0.000000 -0.000000 -0.000000 -0.000000 -0.000000 -0.000000 -0.000000
 -0.000000 -0.000000 -0.000000 -0.000000  0.000000  0.000000  0.000000  0.000000
  0.000000  0.000000  0.000000  0.000000  0.000000  0.000000  0.000000  0.000000
  0.000000  0.000000  0.000000  0.004588  0.005161  0.006123  0.007520  0.012400
  0.015045  0.016926  0.019697  0.023157  0.024389  0.032731  0.068637  0.072845
  0.074733  0.076631  0.077057  0.097092  0.098603  0.153859  0.160000  0.160000
  0.160000  0.160000  0.160000  0.160000  0.160000  0.160000  0.160047  0.160677
  0.202050  0.224777  0.244480  0.250011  0.254265  0.316921  0.337191  0.343527
  0.343729  0.344736  0.347142  0.347532  0.351099  0.352101  0.353148  0.354611
  0.354710  0.357819  0.539878  0.661058  0.703552  1.040043

 RFO max eigenvalues
 -0.000000  0.000000
	|RFO target step|  :        0.1364106364
	RFO gradient       :       -0.0307750607
	RFO hessian        :        0.2217315089
	Projected Delta(E) :       -0.0020960676

	Back-transformation to cartesian coordinates...
	Successfully converged to displaced geometry.
	First geometry is closer to target in internal coordinates, so am using that one.
	First geometry has RMS(Delta(q)) = 4.29e-03

	--- Internal Coordinate Step in ANG or DEG, aJ/ANG or AJ/DEG ---
	 ---------------------------------------------------------------------------
	   Coordinate                Previous        Force       Change         New 
	   ----------                --------       ------       ------       ------
	    1 R(1,4)          =      1.284775     0.149314     0.014065     1.298839
	    2 R(1,11)         =      1.448418     0.046837     0.007429     1.455847
	    3 R(2,3)          =      1.345697     0.105605     0.013450     1.359148
	    4 R(2,7)          =      1.452703     0.021695     0.006208     1.458911
	    5 R(2,15)         =      1.291919     0.119963     0.012555     1.304474
	    6 R(3,4)          =      1.574170     0.091767     0.025261     1.599432
	    7 R(4,5)          =      1.201959     0.335185     0.020786     1.222745
	    8 R(6,15)         =      1.480604     0.013501     0.005315     1.485918
	    9 R(6,16)         =      1.084474     0.026423     0.004961     1.089435
	   10 R(6,17)         =      1.087467     0.026510     0.004966     1.092433
	   11 R(6,18)         =      1.093867     0.027497     0.005412     1.099279
	   12 R(7,8)          =      1.090531     0.020500     0.003850     1.094381
	   13 R(7,9)          =      1.085717     0.023882     0.004445     1.090162
	   14 R(7,10)         =      1.086610     0.025666     0.004662     1.091271
	   15 R(11,12)        =      1.092984     0.028387     0.005316     1.098299
	   16 R(11,13)        =      1.090872     0.023204     0.004294     1.095166
	   17 R(11,14)        =      1.094031     0.022354     0.004264     1.098295
	   18 R(15,19)        =      1.084408     0.026740     0.005019     1.089427
	   19 B(1,4,3)        =    109.449384    -0.000160    -0.652361   108.797024
	   20 B(1,4,5)        =    140.654103     0.000251     0.820396   141.474500
	   21 B(1,11,12)      =    111.312638     0.000043     0.214915   111.527552
	   22 B(1,11,13)      =    110.376713    -0.000096    -0.464914   109.911799
	   23 B(1,11,14)      =    110.731036    -0.000081    -0.362127   110.368909
	   24 B(2,3,4)        =    109.036168    -0.000336    -0.657849   108.378319
	   25 B(2,7,8)        =    107.757073    -0.000006     0.002923   107.759996
	   26 B(2,7,9)        =    108.110549    -0.000071    -0.357636   107.752914
	   27 B(2,7,10)       =    109.448075    -0.000029    -0.133282   109.314793
	   28 B(2,15,6)       =    124.397546    -0.000233    -0.105586   124.291961
	   29 B(2,15,19)      =    114.872453     0.000102    -0.096236   114.776217
	   30 B(3,2,7)        =    113.596344     0.000059     0.024737   113.621081
	   31 B(3,2,15)       =    116.085912    -0.000121     0.288491   116.374403
	   32 B(3,4,5)        =    109.891652    -0.000090    -0.164123   109.727528
	   33 B(4,1,11)       =    116.300633    -0.000012     0.058585   116.359218
	   34 B(6,15,19)      =    118.716082     0.000142    -0.122742   118.593340
	   35 B(7,2,15)       =    123.001282     0.000070     0.404108   123.405390
	   36 B(8,7,9)        =    110.266920     0.000034     0.144853   110.411773
	   37 B(8,7,10)       =    110.865871     0.000035     0.236179   111.102050
	   38 B(9,7,10)       =    110.311109     0.000033     0.084620   110.395729
	   39 B(12,11,13)     =    108.823959     0.000026     0.113938   108.937897
	   40 B(12,11,14)     =    108.111316     0.000040     0.229341   108.340657
	   41 B(13,11,14)     =    107.363612     0.000074     0.289444   107.653056
	   42 B(15,6,16)      =    111.377125     0.000046     0.183125   111.560250
	   43 B(15,6,17)      =    109.345583     0.000015     0.056743   109.402326
	   44 B(15,6,18)      =    108.055943     0.000067     0.331618   108.387561
	   45 B(16,6,17)      =    109.898232    -0.000042    -0.225792   109.672441
	   46 B(16,6,18)      =    109.958737    -0.000059    -0.269535   109.689203
	   47 B(17,6,18)      =    108.128384    -0.000027    -0.075603   108.052781
	   48 D(1,4,3,2)      =      9.381217    -0.000039    -1.543697     7.837519
	   49 D(2,3,4,5)      =   -171.249855    -0.000022    -0.637012  -171.886867
	   50 D(2,15,6,16)    =     17.312587    -0.000004     1.333053    18.645640
	   51 D(2,15,6,17)    =    138.967112    -0.000007     1.207302   140.174414
	   52 D(2,15,6,18)    =   -103.561731    -0.000004     1.336751  -102.224980
	   53 D(3,2,7,8)      =    -63.314573     0.000005    -0.667164   -63.981736
	   54 D(3,2,7,9)      =     55.856343     0.000004    -0.689640    55.166703
	   55 D(3,2,7,10)     =    176.041200    -0.000000    -0.876967   175.164233
	   56 D(3,2,15,6)     =    -33.712093     0.000054     1.155240   -32.556853
	   57 D(3,2,15,19)    =    162.705708     0.000038     2.416813   165.122521
	   58 D(3,4,1,11)     =    174.464792     0.000003     0.583875   175.048666
	   59 D(4,1,11,12)    =      7.118121     0.000005     0.905064     8.023186
	   60 D(4,1,11,13)    =    128.074032     0.000004     0.876459   128.950491
	   61 D(4,1,11,14)    =   -113.176583    -0.000001     0.716819  -112.459764
	   62 D(4,3,2,7)      =     94.532799     0.000010     1.762072    96.294871
	   63 D(4,3,2,15)     =    -56.585885     0.000001     0.311428   -56.274457
	   64 D(5,4,1,11)     =     -4.599192    -0.000021    -0.768668    -5.367861
	   65 D(6,15,2,7)     =    178.142326     0.000048    -0.327622   177.814704
	   66 D(7,2,15,19)    =     14.560127     0.000031     0.933951    15.494078
	   67 D(8,7,2,15)     =     85.537404    -0.000001     0.850642    86.388046
	   68 D(9,7,2,15)     =   -155.291680    -0.000001     0.828166  -154.463514
	   69 D(10,7,2,15)    =    -35.106823    -0.000006     0.640839   -34.465984
	   70 D(16,6,15,19)   =   -179.688120     0.000011     0.031122  -179.656998
	   71 D(17,6,15,19)   =    -58.033594     0.000008    -0.094629   -58.128224
	   72 D(18,6,15,19)   =     59.437563     0.000011     0.034819    59.472382
	   73 R(1,6)          =      2.792086     0.003842     0.004583     2.796669
	   74 R(1,7)          =      3.182440     0.027938     0.018765     3.201205
	   75 R(1,15)         =      2.315111    -0.017283     0.005110     2.320221
	   76 R(4,6)          =      3.098142     0.025047     0.003498     3.101640
	   77 R(6,11)         =      3.764105     0.009667     0.001149     3.765254
	   78 R(11,15)        =      3.572955    -0.009896     0.002392     3.575347
	 ---------------------------------------------------------------------------
	Successfully symmetrized geometry.

  ==> Convergence Check <==

  Measures of convergence in internal coordinates in au.
  Criteria marked as inactive (o), active & met (*), and active & unmet ( ).
  --------------------------------------------------------------------------------------------- ~
   Step     Total Energy     Delta E     MAX Force     RMS Force      MAX Disp      RMS Disp    ~
  --------------------------------------------------------------------------------------------- ~
    Convergence Criteria    1.00e-06 *    3.00e-04 *             o    1.20e-03 *             o  ~
  --------------------------------------------------------------------------------------------- ~
      1    -455.02148168   -4.55e+02      4.07e-02      5.93e-03 o    4.77e-02      1.48e-02 o  ~
  ---------------------------------------------------------------------------------------------

	Writing optimization data to binary file.
	Structure for next step:
	Cartesian Geometry (in Angstrom)
	    N    -0.9139836325   0.2802398680   0.6313439467
	    N     1.4092129435  -0.2191855337   0.0216050459
	    O     0.5591754963  -0.8331989339  -0.8430948928
	    C    -0.9391391365  -0.5730490411  -0.3475580593
	    O    -1.7158416333  -1.2451042003  -1.0110184370
	    C     0.7333857292   1.9911548839  -0.8452400617
	    C     1.9401126648  -1.1078924336   1.0495960918
	    H     1.1006889422  -1.4446332940   1.6657481227
	    H     2.4072061252  -1.9553383193   0.5474879800
	    H     2.6755214570  -0.5682228250   1.6485982155
	    C    -2.2056992485   0.7222648843   1.1368887162
	    H    -3.0300506998   0.1475839787   0.6936644410
	    H    -2.2386725423   0.6090962392   2.2256928300
	    H    -2.3626946893   1.7848163954   0.9075676103
	    C     1.2285736260   1.0601176671   0.2016180302
	    H     0.2378949365   1.4563361920  -1.6547622724
	    H     0.0387010177   2.7051002892  -0.3967924207
	    H     1.5902992606   2.5533823104  -1.2427488584
	    H     1.7391563674   1.4756009637   1.0696794804
			--------------------------
			 OPTKING Finished Execution 
			--------------------------

    Structure for next step:
    Molecular point group: c1
    Full point group: C1

    Geometry (in Angstrom), charge = 0, multiplicity = 1:

    N           -0.911644177419     0.283772720210     0.636437519671
    N            1.411552398524    -0.215652681460     0.026698618894
    O            0.561514951331    -0.829666081622    -0.838001319780
    C           -0.936799681441    -0.569516188886    -0.342464486296
    O           -1.713502178268    -1.241571348020    -1.005924863967
    C            0.735725184200     1.994687736154    -0.840146488669
    C            1.942452119829    -1.104359581407     1.054689664773
    H            1.103028397248    -1.441100441738     1.670841695732
    H            2.409545580196    -1.951805467114     0.552581552976
    H            2.677860912038    -0.564689972744     1.653691788460
    C           -2.203359793489     0.725797736487     1.141982289142
    H           -3.027711244749     0.151116830954     0.698758013948
    H           -2.236333087262     0.612629091404     2.230786402969
    H           -2.360355234251     1.788349247614     0.912661183321
    C            1.230913081023     1.063650519287     0.206711603192
    H            0.240234391535     1.459869044282    -1.649668699447
    H            0.041040472750     2.708633141463    -0.391698847710
    H            1.592638715619     2.556915162642    -1.237655285442
    H            1.741495822420     1.479133815901     1.074773053386

gradient() will perform analytic gradient computation.

*** tstart() called on localhost.localdomain
*** at Mon Jan 14 17:04:46 2019

    SCF Algorithm Type (re)set to DF.

*** tstart() called on localhost.localdomain
*** at Mon Jan 14 17:04:46 2019

   => Loading Basis Set <=

    Name: 6-31+G(D)
    Role: ORBITAL
    Keyword: BASIS
    atoms 1-2                entry N          line   138 file /root/psi4conda/share/psi4/basis/6-31pg_d_.gbs 
    atoms 3, 5               entry O          line   157 file /root/psi4conda/share/psi4/basis/6-31pg_d_.gbs 
    atoms 4, 6-7, 11, 15     entry C          line   119 file /root/psi4conda/share/psi4/basis/6-31pg_d_.gbs 
    atoms 8-10, 12-14, 16-19 entry H          line    46 file /root/psi4conda/share/psi4/basis/6-31pg_d_.gbs 


         ---------------------------------------------------------
                                   SCF
            by Justin Turney, Rob Parrish, Andy Simmonett
                             and Daniel Smith
                              RHF Reference
                        1 Threads,    500 MiB Core
         ---------------------------------------------------------

  ==> Geometry <==

    Molecular point group: c1
    Full point group: C1

    Geometry (in Angstrom), charge = 0, multiplicity = 1:

       Center              X                  Y                   Z               Mass       
    ------------   -----------------  -----------------  -----------------  -----------------
         N           -0.911644177419     0.283772720210     0.636437519671    14.003074004780
         N            1.411552398524    -0.215652681460     0.026698618894    14.003074004780
         O            0.561514951331    -0.829666081622    -0.838001319780    15.994914619560
         C           -0.936799681441    -0.569516188886    -0.342464486296    12.000000000000
         O           -1.713502178268    -1.241571348020    -1.005924863967    15.994914619560
         C            0.735725184200     1.994687736154    -0.840146488669    12.000000000000
         C            1.942452119829    -1.104359581407     1.054689664773    12.000000000000
         H            1.103028397248    -1.441100441738     1.670841695732     1.007825032070
         H            2.409545580196    -1.951805467114     0.552581552976     1.007825032070
         H            2.677860912038    -0.564689972744     1.653691788460     1.007825032070
         C           -2.203359793489     0.725797736487     1.141982289142    12.000000000000
         H           -3.027711244749     0.151116830954     0.698758013948     1.007825032070
         H           -2.236333087262     0.612629091404     2.230786402969     1.007825032070
         H           -2.360355234251     1.788349247614     0.912661183321     1.007825032070
         C            1.230913081023     1.063650519287     0.206711603192    12.000000000000
         H            0.240234391535     1.459869044282    -1.649668699447     1.007825032070
         H            0.041040472750     2.708633141463    -0.391698847710     1.007825032070
         H            1.592638715619     2.556915162642    -1.237655285442     1.007825032070
         H            1.741495822420     1.479133815901     1.074773053386     1.007825032070

  Running in c1 symmetry.

  Rotational constants: A =      0.06976  B =      0.04684  C =      0.03985 [cm^-1]
  Rotational constants: A =   2091.33724  B =   1404.24518  C =   1194.56719 [MHz]
  Nuclear repulsion =  485.831529950480842

  Charge       = 0
  Multiplicity = 1
  Electrons    = 70
  Nalpha       = 35
  Nbeta        = 35

  ==> Algorithm <==

  SCF Algorithm Type is DF.
  DIIS enabled.
  MOM disabled.
  Fractional occupation disabled.
  Guess Type is READ.
  Energy threshold   = 1.00e-10
  Density threshold  = 1.00e-10
  Integral threshold = 0.00e+00

  ==> Primary Basis <==

  Basis Set: 6-31+G(D)
    Blend: 6-31+G(D)
    Number of shells: 92
    Number of basis function: 191
    Number of Cartesian functions: 191
    Spherical Harmonics?: false
    Max angular momentum: 2

   => Loading Basis Set <=

    Name: (6-31+G(D) AUX)
    Role: JKFIT
    Keyword: DF_BASIS_SCF
    atoms 1-2                entry N          line   252 file /root/psi4conda/share/psi4/basis/heavy-aug-cc-pvdz-jkfit.gbs 
    atoms 3, 5               entry O          line   310 file /root/psi4conda/share/psi4/basis/heavy-aug-cc-pvdz-jkfit.gbs 
    atoms 4, 6-7, 11, 15     entry C          line   194 file /root/psi4conda/share/psi4/basis/heavy-aug-cc-pvdz-jkfit.gbs 
    atoms 8-10, 12-14, 16-19 entry H          line   116 file /root/psi4conda/share/psi4/basis/heavy-aug-cc-pvdz-jkfit.gbs 

  Reading orbitals from file 180, no projection.

  ==> Pre-Iterations <==

   -------------------------------------------------------
    Irrep   Nso     Nmo     Nalpha   Nbeta   Ndocc  Nsocc
   -------------------------------------------------------
     A        191     191       0       0       0       0
   -------------------------------------------------------
    Total     191     191      35      35      35       0
   -------------------------------------------------------

  ==> Integral Setup <==

  ==> DiskDFJK: Density-Fitted J/K Matrices <==

    J tasked:                  Yes
    K tasked:                  Yes
    wK tasked:                  No
    OpenMP threads:              1
    Integrals threads:           1
    Memory (MB):               375
    Algorithm:                Core
    Integral Cache:           NONE
    Schwarz Cutoff:          1E-12
    Fitting Condition:       1E-12

   => Auxiliary Basis Set <=

  Basis Set: (6-31+G(D) AUX)
    Blend: HEAVY-AUG-CC-PVDZ-JKFIT
    Number of shells: 342
    Number of basis function: 1159
    Number of Cartesian functions: 1159
    Spherical Harmonics?: false
    Max angular momentum: 3

  Minimum eigenvalue in the overlap matrix is 5.6242774742E-05.
  Using Symmetric Orthogonalization.

  SCF Guess: Orbitals guess was supplied from a previous computation.

  ==> Iterations <==

                           Total Energy        Delta E     RMS |[F,P]|

   @DF-RHF iter   0:  -453.58153831839093   -4.53582e+02   6.59127e-04 
   @DF-RHF iter   1:  -453.66037395678359   -7.88356e-02   1.12439e-04 
   @DF-RHF iter   2:  -453.66060278869901   -2.28832e-04   6.40888e-05 DIIS
   @DF-RHF iter   3:  -453.66066891918143   -6.61305e-05   1.61586e-05 DIIS
   @DF-RHF iter   4:  -453.66067858049394   -9.66131e-06   7.58850e-06 DIIS
   @DF-RHF iter   5:  -453.66068026134297   -1.68085e-06   2.25321e-06 DIIS
   @DF-RHF iter   6:  -453.66068056871825   -3.07375e-07   1.12870e-06 DIIS
   @DF-RHF iter   7:  -453.66068063141421   -6.26960e-08   4.30801e-07 DIIS
   @DF-RHF iter   8:  -453.66068064317949   -1.17653e-08   1.72312e-07 DIIS
   @DF-RHF iter   9:  -453.66068064515730   -1.97781e-09   8.05083e-08 DIIS
   @DF-RHF iter  10:  -453.66068064556043   -4.03134e-10   2.63976e-08 DIIS
   @DF-RHF iter  11:  -453.66068064560829   -4.78622e-11   1.04410e-08 DIIS
   @DF-RHF iter  12:  -453.66068064561358   -5.28644e-12   3.55393e-09 DIIS
   @DF-RHF iter  13:  -453.66068064561574   -2.16005e-12   1.36590e-09 DIIS
   @DF-RHF iter  14:  -453.66068064561523    5.11591e-13   5.56838e-10 DIIS
   @DF-RHF iter  15:  -453.66068064561216    3.06954e-12   1.66564e-10 DIIS
   @DF-RHF iter  16:  -453.66068064560989    2.27374e-12   6.14820e-11 DIIS

  ==> Post-Iterations <==

    Orbital Energies [Eh]
    ---------------------

    Doubly Occupied:                                                      

       1A    -20.620150     2A    -20.513994     3A    -15.707439  
       4A    -15.524030     5A    -11.385565     6A    -11.372105  
       7A    -11.297842     8A    -11.270443     9A    -11.235994  
      10A     -1.478817    11A     -1.351731    12A     -1.216855  
      13A     -1.181757    14A     -1.078690    15A     -0.979610  
      16A     -0.924689    17A     -0.842725    18A     -0.756094  
      19A     -0.728891    20A     -0.698428    21A     -0.669773  
      22A     -0.628055    23A     -0.621198    24A     -0.607672  
      25A     -0.594816    26A     -0.591136    27A     -0.582394  
      28A     -0.571700    29A     -0.543091    30A     -0.532969  
      31A     -0.489316    32A     -0.462632    33A     -0.437592  
      34A     -0.372874    35A     -0.338852  

    Virtual:                                                              

      36A      0.046624    37A      0.069034    38A      0.070170  
      39A      0.079550    40A      0.089193    41A      0.102439  
      42A      0.110586    43A      0.114232    44A      0.115970  
      45A      0.126679    46A      0.137071    47A      0.143956  
      48A      0.156269    49A      0.161877    50A      0.171026  
      51A      0.179244    52A      0.184918    53A      0.193813  
      54A      0.209136    55A      0.219497    56A      0.237125  
      57A      0.250832    58A      0.253859    59A      0.286240  
      60A      0.295798    61A      0.312673    62A      0.320224  
      63A      0.327368    64A      0.336821    65A      0.351764  
      66A      0.357290    67A      0.364750    68A      0.368266  
      69A      0.374673    70A      0.378158    71A      0.389038  
      72A      0.404160    73A      0.405444    74A      0.415748  
      75A      0.423252    76A      0.440977    77A      0.446634  
      78A      0.453605    79A      0.467765    80A      0.470108  
      81A      0.481397    82A      0.492759    83A      0.503166  
      84A      0.525856    85A      0.543530    86A      0.555957  
      87A      0.583011    88A      0.586179    89A      0.605022  
      90A      0.659405    91A      0.822071    92A      0.839630  
      93A      0.860919    94A      0.899702    95A      0.909103  
      96A      0.947794    97A      0.949812    98A      0.957163  
      99A      0.971542   100A      0.988738   101A      1.003548  
     102A      1.007756   103A      1.039552   104A      1.069270  
     105A      1.108845   106A      1.144092   107A      1.158806  
     108A      1.181701   109A      1.184405   110A      1.201819  
     111A      1.214334   112A      1.242029   113A      1.243866  
     114A      1.253481   115A      1.278516   116A      1.300766  
     117A      1.326866   118A      1.342014   119A      1.347516  
     120A      1.368593   121A      1.401267   122A      1.445963  
     123A      1.467099   124A      1.495153   125A      1.512300  
     126A      1.557219   127A      1.603425   128A      1.618350  
     129A      1.622385   130A      1.639527   131A      1.661246  
     132A      1.674145   133A      1.710124   134A      1.713535  
     135A      1.724844   136A      1.792328   137A      1.837856  
     138A      1.849789   139A      1.882071   140A      1.918049  
     141A      1.938303   142A      1.964578   143A      2.008181  
     144A      2.046262   145A      2.133562   146A      2.144709  
     147A      2.181747   148A      2.208954   149A      2.232153  
     150A      2.239290   151A      2.285260   152A      2.317487  
     153A      2.338061   154A      2.348442   155A      2.404716  
     156A      2.414083   157A      2.480087   158A      2.488701  
     159A      2.537967   160A      2.549367   161A      2.556901  
     162A      2.567588   163A      2.589308   164A      2.613502  
     165A      2.636187   166A      2.688417   167A      2.708297  
     168A      2.746284   169A      2.777444   170A      2.806412  
     171A      2.880377   172A      2.930843   173A      3.058664  
     174A      3.129866   175A      3.146551   176A      3.182056  
     177A      3.194701   178A      3.264937   179A      3.387377  
     180A      3.463402   181A      3.513662   182A      3.706505  
     183A      4.565306   184A      4.649231   185A      4.679063  
     186A      4.783623   187A      4.849284   188A      4.863746  
     189A      4.890552   190A      5.019515   191A      5.097334  

    Final Occupation by Irrep:
              A 
    DOCC [    35 ]

  Energy converged.

  @DF-RHF Final Energy:  -453.66068064560989

   => Energetics <=

    Nuclear Repulsion Energy =            485.8315299504808422
    One-Electron Energy =               -1582.5645878091768282
    Two-Electron Energy =                 643.0723772130860425
    Total Energy =                       -453.6606806456098866



Properties will be evaluated at   0.000000,   0.000000,   0.000000 [a0]

Properties computed using the SCF density matrix

  Nuclear Dipole Moment: [e a0]
     X:     2.0381      Y:     6.3638      Z:     5.1594

  Electronic Dipole Moment: [e a0]
     X:     0.3537      Y:    -4.5323      Z:    -3.7990

  Dipole Moment: [e a0]
     X:     2.3917      Y:     1.8315      Z:     1.3604     Total:     3.3054

  Dipole Moment: [D]
     X:     6.0792      Y:     4.6552      Z:     3.4579     Total:     8.4014


*** tstop() called on localhost.localdomain at Mon Jan 14 17:05:00 2019
Module time:
	user time   =      13.44 seconds =       0.22 minutes
	system time =       0.34 seconds =       0.01 minutes
	total time  =         14 seconds =       0.23 minutes
Total time:
	user time   =      68.49 seconds =       1.14 minutes
	system time =       2.34 seconds =       0.04 minutes
	total time  =         71 seconds =       1.18 minutes

  //>>>>>>>>>>>>>>>>>>>>>>>>>>>>>>>>>>>//
  //               DFMP2               //
  //<<<<<<<<<<<<<<<<<<<<<<<<<<<<<<<<<<<//

   => Loading Basis Set <=

    Name: (6-31+G(D) AUX)
    Role: RIFIT
    Keyword: DF_BASIS_MP2
    atoms 1-2                entry N          line   162 file /root/psi4conda/share/psi4/basis/heavy-aug-cc-pvdz-ri.gbs 
    atoms 3, 5               entry O          line   208 file /root/psi4conda/share/psi4/basis/heavy-aug-cc-pvdz-ri.gbs 
    atoms 4, 6-7, 11, 15     entry C          line   116 file /root/psi4conda/share/psi4/basis/heavy-aug-cc-pvdz-ri.gbs 
    atoms 8-10, 12-14, 16-19 entry H          line    44 file /root/psi4conda/share/psi4/basis/heavy-aug-cc-pvdz-ri.gbs 

	 --------------------------------------------------------
	                          DF-MP2                         
	      2nd-Order Density-Fitted Moller-Plesset Theory     
	              RMP2 Wavefunction,   1 Threads             
	                                                         
	        Rob Parrish, Justin Turney, Andy Simmonett,      
	           Ed Hohenstein, and C. David Sherrill          
	 --------------------------------------------------------

   => Auxiliary Basis Set <=

  Basis Set: (6-31+G(D) AUX)
    Blend: HEAVY-AUG-CC-PVDZ-RI
    Number of shells: 258
    Number of basis function: 788
    Number of Cartesian functions: 924
    Spherical Harmonics?: true
    Max angular momentum: 3

	 --------------------------------------------------------
	                 NBF =   191, NAUX =   788
	 --------------------------------------------------------
	   CLASS    FOCC     OCC    AOCC    AVIR     VIR    FVIR
	   PAIRS       9      35      26     156     156       0
	 --------------------------------------------------------


         ------------------------------------------------------------
                                     CPHF                           
                                  Rob Parrish                       
         ------------------------------------------------------------

  ==> Geometry <==

    Molecular point group: c1
    Full point group: C1

    Geometry (in Angstrom), charge = 0, multiplicity = 1:

       Center              X                  Y                   Z               Mass       
    ------------   -----------------  -----------------  -----------------  -----------------
         N           -0.911644177419     0.283772720210     0.636437519671    14.003074004780
         N            1.411552398524    -0.215652681460     0.026698618894    14.003074004780
         O            0.561514951331    -0.829666081622    -0.838001319780    15.994914619560
         C           -0.936799681441    -0.569516188886    -0.342464486296    12.000000000000
         O           -1.713502178268    -1.241571348020    -1.005924863967    15.994914619560
         C            0.735725184200     1.994687736154    -0.840146488669    12.000000000000
         C            1.942452119829    -1.104359581407     1.054689664773    12.000000000000
         H            1.103028397248    -1.441100441738     1.670841695732     1.007825032070
         H            2.409545580196    -1.951805467114     0.552581552976     1.007825032070
         H            2.677860912038    -0.564689972744     1.653691788460     1.007825032070
         C           -2.203359793489     0.725797736487     1.141982289142    12.000000000000
         H           -3.027711244749     0.151116830954     0.698758013948     1.007825032070
         H           -2.236333087262     0.612629091404     2.230786402969     1.007825032070
         H           -2.360355234251     1.788349247614     0.912661183321     1.007825032070
         C            1.230913081023     1.063650519287     0.206711603192    12.000000000000
         H            0.240234391535     1.459869044282    -1.649668699447     1.007825032070
         H            0.041040472750     2.708633141463    -0.391698847710     1.007825032070
         H            1.592638715619     2.556915162642    -1.237655285442     1.007825032070
         H            1.741495822420     1.479133815901     1.074773053386     1.007825032070

  Nuclear repulsion =  485.831529950480842
  Reference energy  = -453.660680645609887

  ==> Basis Set <==

  Basis Set: 6-31+G(D)
    Blend: 6-31+G(D)
    Number of shells: 92
    Number of basis function: 191
    Number of Cartesian functions: 191
    Spherical Harmonics?: false
    Max angular momentum: 2

  ==> CGRSolver (by Rob Parrish) <==

   Number of roots    =         1
   Preconditioning    =    JACOBI
   Convergence cutoff =     1E-06
   Maximum iterations =       100

  ==> CPHFRHamiltonian (by Rob Parrish) <== 

  ==> DiskDFJK: Density-Fitted J/K Matrices <==

    J tasked:                  Yes
    K tasked:                  Yes
    wK tasked:                  No
    OpenMP threads:              1
    Integrals threads:           1
    Memory (MB):               375
    Algorithm:                Core
    Integral Cache:           NONE
    Schwarz Cutoff:          1E-12
    Fitting Condition:       1E-12

   => Auxiliary Basis Set <=

  Basis Set: (6-31+G(D) AUX)
    Blend: HEAVY-AUG-CC-PVDZ-JKFIT
    Number of shells: 342
    Number of basis function: 1159
    Number of Cartesian functions: 1159
    Spherical Harmonics?: false
    Max angular momentum: 3

  ==> CPHF Iterations <==

  => Iterations <=

             Iter  Converged  Remaining    Residual
  CGR           1          0          1   1.761E-01
  CGR           2          0          1   5.439E-02
  CGR           3          0          1   2.650E-02
  CGR           4          0          1   8.533E-03
  CGR           5          0          1   4.021E-03
  CGR           6          0          1   1.235E-03
  CGR           7          0          1   5.704E-04
  CGR           8          0          1   2.142E-04
  CGR           9          0          1   7.489E-05
  CGR          10          0          1   2.454E-05
  CGR          11          0          1   7.228E-06
  CGR          12          0          1   2.387E-06
  CGR          13          1          0   8.091E-07

    CGRSolver converged.

  ==> DFCorrGrad: Density-Fitted Correlated Gradients <==

    OpenMP threads:              1
    Integrals threads:           1
    Memory (MB):               375
    Schwarz Cutoff:          0E+00
    Fitting Condition:       1E-12

   => Auxiliary Basis Set <=

  Basis Set: (6-31+G(D) AUX)
    Blend: HEAVY-AUG-CC-PVDZ-JKFIT
    Number of shells: 342
    Number of basis function: 1159
    Number of Cartesian functions: 1159
    Spherical Harmonics?: false
    Max angular momentum: 3

	-----------------------------------------------------------
	 ==================> DF-MP2 Energies <==================== 
	-----------------------------------------------------------
	 Reference Energy          =    -453.6606806456098866 [Eh]
	 Singles Energy            =      -0.0000000000000000 [Eh]
	 Same-Spin Energy          =      -0.3613169600217376 [Eh]
	 Opposite-Spin Energy      =      -1.0016612831531646 [Eh]
	 Correlation Energy        =      -1.3629782431749022 [Eh]
	 Total Energy              =    -455.0236588887847802 [Eh]
	-----------------------------------------------------------
	 ================> DF-SCS-MP2 Energies <================== 
	-----------------------------------------------------------
	 SCS Same-Spin Scale       =       0.3333333333333333 [-]
	 SCS Opposite-Spin Scale   =       1.2000000000000000 [-]
	 SCS Same-Spin Energy      =      -0.1204389866739125 [Eh]
	 SCS Opposite-Spin Energy  =      -1.2019935397837975 [Eh]
	 SCS Correlation Energy    =      -1.3224325264577101 [Eh]
	 SCS Total Energy          =    -454.9831131720675899 [Eh]
	-----------------------------------------------------------


  -Total Gradient:
     Atom            X                  Y                   Z
    ------   -----------------  -----------------  -----------------
       1       -0.000881402351     0.001520318560     0.001331678581
       2       -0.002538993371    -0.002491338142    -0.001271196849
       3       -0.004115668545     0.001043355312     0.003657673715
       4        0.005403985541    -0.004274300157    -0.008192327439
       5        0.000567825105     0.001487683352     0.002317450041
       6       -0.000366454719     0.000394771746     0.000159167496
       7       -0.000120746187     0.001102888086    -0.000588006518
       8       -0.000087906676    -0.000199949395     0.000361248925
       9        0.000193345010    -0.000334804443     0.000099024914
      10        0.000176654358    -0.000205405775     0.000243173519
      11        0.003026607240    -0.000421624828     0.000325290821
      12       -0.000282282825    -0.000092789721    -0.000176885749
      13       -0.000553807932     0.000212988887     0.000380668671
      14       -0.000248087920     0.000412340310     0.000202355365
      15       -0.000666945834     0.001074336255     0.001714490902
      16       -0.000157216939    -0.000185906138    -0.000227186119
      17       -0.000049901574     0.000085303891    -0.000061286679
      18        0.000189990977     0.000223222210    -0.000053489165
      19        0.000511006642     0.000648909995    -0.000221844421


*** tstop() called on localhost.localdomain at Mon Jan 14 17:05:44 2019
Module time:
	user time   =      55.25 seconds =       0.92 minutes
	system time =       1.99 seconds =       0.03 minutes
	total time  =         58 seconds =       0.97 minutes
Total time:
	user time   =     110.30 seconds =       1.84 minutes
	system time =       3.99 seconds =       0.07 minutes
	total time  =        115 seconds =       1.92 minutes

			-----------------------------------------
			 OPTKING 2.0: for geometry optimizations 
			  - R.A. King,  Bethel University        
			-----------------------------------------

	Previous internal coordinate definitions found.
	---Fragment 1 Geometry and Gradient---
	 N          -1.7227578260        0.5362527252        1.2026926129
	 N           2.6674474554       -0.4075245078        0.0504530778
	 O           1.0611094775       -1.5678416760       -1.5835929934
	 C          -1.7702948393       -1.0762296252       -0.6471640893
	 O          -3.2380498450       -2.3462298222       -1.9009225032
	 C           1.3903191072        3.7694135420       -1.5876467751
	 C           3.6707025327       -2.0869371611        1.9930746216
	 H           2.0844215876       -2.7232851649        3.1574332163
	 H           4.5533812513       -3.6883777975        1.0442278012
	 H           5.0604237457       -1.0671093985        3.1250245884
	 C          -4.1637465819        1.3715589498        2.1580337751
	 H          -5.7215450620        0.2855694246        1.3204612795
	 H          -4.2260570768        1.1577012038        4.2155753626
	 H          -4.4604249691        3.3794903079        1.7246796886
	 C           2.3260886165        2.0100081826        0.3906283185
	 H           0.4539772077        2.7587526836       -3.1174220519
	 H           0.0775552539        5.1185748318       -0.7402035487
	 H           3.0096510012        4.8318694024       -2.3388295364
	 H           3.2909501659        2.7951578259        2.0310267259
	            -0.0008814024        0.0015203186        0.0013316786
	            -0.0025389934       -0.0024913381       -0.0012711968
	            -0.0041156685        0.0010433553        0.0036576737
	             0.0054039855       -0.0042743002       -0.0081923274
	             0.0005678251        0.0014876834        0.0023174500
	            -0.0003664547        0.0003947717        0.0001591675
	            -0.0001207462        0.0011028881       -0.0005880065
	            -0.0000879067       -0.0001999494        0.0003612489
	             0.0001933450       -0.0003348044        0.0000990249
	             0.0001766544       -0.0002054058        0.0002431735
	             0.0030266072       -0.0004216248        0.0003252908
	            -0.0002822828       -0.0000927897       -0.0001768857
	            -0.0005538079        0.0002129889        0.0003806687
	            -0.0002480879        0.0004123403        0.0002023554
	            -0.0006669458        0.0010743363        0.0017144909
	            -0.0001572169       -0.0001859061       -0.0002271861
	            -0.0000499016        0.0000853039       -0.0000612867
	             0.0001899910        0.0002232222       -0.0000534892
	             0.0005110066        0.0006489100       -0.0002218444

	---Fragment 1 Intrafragment Coordinates---
	 - Coordinate -           - BOHR/RAD -       - ANG/DEG -
	 R(1,4)           =         2.454451	       1.298839
	 R(1,11)          =         2.751152	       1.455847
	 R(2,3)           =         2.568417	       1.359148
	 R(2,7)           =         2.756941	       1.458911
	 R(2,15)          =         2.465098	       1.304474
	 R(3,4)           =         3.022488	       1.599432
	 R(4,5)           =         2.310653	       1.222745
	 R(6,15)          =         2.807979	       1.485918
	 R(6,16)          =         2.058734	       1.089435
	 R(6,17)          =         2.064399	       1.092433
	 R(6,18)          =         2.077336	       1.099279
	 R(7,8)           =         2.068081	       1.094381
	 R(7,9)           =         2.060108	       1.090162
	 R(7,10)          =         2.062204	       1.091271
	 R(11,12)         =         2.075485	       1.098299
	 R(11,13)         =         2.069564	       1.095166
	 R(11,14)         =         2.075476	       1.098295
	 R(15,19)         =         2.058719	       1.089427
	 B(1,4,3)         =         1.898866	     108.797024
	 B(1,4,5)         =         2.469196	     141.474500
	 B(1,11,12)       =         1.946523	     111.527552
	 B(1,11,13)       =         1.918323	     109.911799
	 B(1,11,14)       =         1.926301	     110.368909
	 B(2,3,4)         =         1.891559	     108.378319
	 B(2,7,8)         =         1.880767	     107.759996
	 B(2,7,9)         =         1.880643	     107.752914
	 B(2,7,10)        =         1.907903	     109.314793
	 B(2,15,6)        =         2.169304	     124.291961
	 B(2,15,19)       =         2.003223	     114.776217
	 B(3,2,7)         =         1.983062	     113.621081
	 B(3,2,15)        =         2.031116	     116.374403
	 B(3,4,5)         =         1.915107	     109.727528
	 B(4,1,11)        =         2.030851	     116.359218
	 B(6,15,19)       =         2.069844	     118.593340
	 B(7,2,15)        =         2.153830	     123.405390
	 B(8,7,9)         =         1.927049	     110.411773
	 B(8,7,10)        =         1.939097	     111.102050
	 B(9,7,10)        =         1.926769	     110.395729
	 B(12,11,13)      =         1.901325	     108.937897
	 B(12,11,14)      =         1.890901	     108.340657
	 B(13,11,14)      =         1.878900	     107.653056
	 B(15,6,16)       =         1.947094	     111.560250
	 B(15,6,17)       =         1.909431	     109.402326
	 B(15,6,18)       =         1.891720	     108.387561
	 B(16,6,17)       =         1.914145	     109.672441
	 B(16,6,18)       =         1.914438	     109.689203
	 B(17,6,18)       =         1.885877	     108.052781
	 D(1,4,3,2)       =         0.136791	       7.837519
	 D(2,3,4,5)       =        -2.999992	    -171.886867
	 D(2,15,6,16)     =         0.325428	      18.645640
	 D(2,15,6,17)     =         2.446505	     140.174414
	 D(2,15,6,18)     =        -1.784162	    -102.224980
	 D(3,2,7,8)       =        -1.116692	     -63.981736
	 D(3,2,7,9)       =         0.962841	      55.166703
	 D(3,2,7,10)      =         3.057193	     175.164233
	 D(3,2,15,6)      =        -0.568224	     -32.556853
	 D(3,2,15,19)     =         2.881932	     165.122521
	 D(3,4,1,11)      =         3.055176	     175.048666
	 D(4,1,11,12)     =         0.140031	       8.023186
	 D(4,1,11,13)     =         2.250611	     128.950491
	 D(4,1,11,14)     =        -1.962793	    -112.459764
	 D(4,3,2,7)       =         1.680663	      96.294871
	 D(4,3,2,15)      =        -0.982175	     -56.274457
	 D(5,4,1,11)      =        -0.093687	      -5.367861
	 D(6,15,2,7)      =         3.103452	     177.814704
	 D(7,2,15,19)     =         0.270423	      15.494078
	 D(8,7,2,15)      =         1.507756	      86.388046
	 D(9,7,2,15)      =        -2.695897	    -154.463514
	 D(10,7,2,15)     =        -0.601545	     -34.465984
	 D(16,6,15,19)    =        -3.135606	    -179.656998
	 D(17,6,15,19)    =        -1.014529	     -58.128224
	 D(18,6,15,19)    =         1.037989	      59.472382
	 R(1,6)           =         5.284938	       2.796669
	 R(1,7)           =         6.049400	       3.201205
	 R(1,15)          =         4.384582	       2.320221
	 R(4,6)           =         5.861250	       3.101640
	 R(6,11)          =         7.115299	       3.765254
	 R(11,15)         =         6.756427	       3.575347

	Current energy   :      -455.0236588888

	Energy change for the previous step:
		Projected    :        -0.0020960676
		Actual       :        -0.0021772124

	Performing Bofill update.
	Previous computed or guess Hessian on step 1.
	Steps to be used in Hessian update: 1
	Taking PRFO optimization step.
	Maximizing along 1 lowest eigenvalue of Hessian.

 RFO min eigenvalues
 -0.001138 -0.000000 -0.000000 -0.000000 -0.000000 -0.000000 -0.000000 -0.000000
 -0.000000 -0.000000 -0.000000 -0.000000 -0.000000 -0.000000  0.000000  0.000000
  0.000000  0.000000  0.000000  0.000000  0.000000  0.000000  0.000000  0.000000
  0.000000  0.000000  0.000000  0.003629  0.004602  0.006708  0.007237  0.012292
  0.013780  0.017103  0.020203  0.022833  0.027452  0.038081  0.072812  0.074306
  0.075813  0.076638  0.077111  0.097032  0.098569  0.154827  0.156493  0.159996
  0.159998  0.159998  0.159998  0.159999  0.160000  0.160000  0.160114  0.162540
  0.196277  0.216395  0.228590  0.244555  0.250369  0.317266  0.338700  0.343574
  0.343996  0.345241  0.347307  0.348131  0.351163  0.352281  0.353393  0.354629
  0.355336  0.359818  0.537584  0.665489  0.712922  1.028045

 RFO max eigenvalues
 -0.000000  0.000000
	|RFO target step|  :        0.4261248472
	RFO gradient       :       -0.0026707450
	RFO hessian        :        0.0052897911
	Projected Delta(E) :       -0.0005567148

	Back-transformation to cartesian coordinates...
	Could not converge backtransformation.
	Using first guess instead.

	--- Internal Coordinate Step in ANG or DEG, aJ/ANG or AJ/DEG ---
	 ---------------------------------------------------------------------------
	   Coordinate                Previous        Force       Change         New 
	   ----------                --------       ------       ------       ------
	    1 R(1,4)          =      1.298839    -0.024350    -0.003090     1.295750
	    2 R(1,11)         =      1.455847     0.001173     0.007838     1.463686
	    3 R(2,3)          =      1.359148     0.007167     0.003150     1.362297
	    4 R(2,7)          =      1.458911    -0.003753     0.001221     1.460132
	    5 R(2,15)         =      1.304474    -0.017902    -0.003633     1.300841
	    6 R(3,4)          =      1.599432     0.049124     0.036653     1.636085
	    7 R(4,5)          =      1.222745     0.020068     0.005017     1.227762
	    8 R(6,15)         =      1.485918    -0.004655    -0.001525     1.484394
	    9 R(6,16)         =      1.089435    -0.002731     0.002191     1.091626
	   10 R(6,17)         =      1.092433    -0.000514     0.002884     1.095317
	   11 R(6,18)         =      1.099279    -0.002320     0.002237     1.101516
	   12 R(7,8)          =      1.094381    -0.002738     0.000166     1.094548
	   13 R(7,9)          =      1.090162    -0.002451     0.000911     1.091073
	   14 R(7,10)         =      1.091271    -0.001243     0.000115     1.091387
	   15 R(11,12)        =      1.098299    -0.002734     0.008439     1.106738
	   16 R(11,13)        =      1.095166    -0.003074     0.011473     1.106639
	   17 R(11,14)        =      1.098295    -0.003231     0.013590     1.111884
	   18 R(15,19)        =      1.089427    -0.002556     0.000344     1.089772
	   19 B(1,4,3)        =    108.797024     0.000024     0.999252   109.796276
	   20 B(1,4,5)        =    141.474500     0.000105     0.233935   141.708434
	   21 B(1,11,12)      =    111.527552     0.000012    -0.402796   111.124756
	   22 B(1,11,13)      =    109.911799    -0.000063    -1.032963   108.878836
	   23 B(1,11,14)      =    110.368909    -0.000020    -0.073597   110.295312
	   24 B(2,3,4)        =    108.378319    -0.000124    -0.104915   108.273405
	   25 B(2,7,8)        =    107.759996    -0.000020    -0.168416   107.591580
	   26 B(2,7,9)        =    107.752914    -0.000021    -0.333043   107.419870
	   27 B(2,7,10)       =    109.314793    -0.000029    -0.374325   108.940468
	   28 B(2,15,6)       =    124.291961     0.000027    -0.305192   123.986769
	   29 B(2,15,19)      =    114.776217    -0.000049    -0.673573   114.102644
	   30 B(3,2,7)        =    113.621081    -0.000035    -0.037218   113.583863
	   31 B(3,2,15)       =    116.374403    -0.000040    -0.689073   115.685330
	   32 B(3,4,5)        =    109.727528    -0.000128    -1.481351   108.246178
	   33 B(4,1,11)       =    116.359218    -0.000150    -1.567335   114.791882
	   34 B(6,15,19)      =    118.593340     0.000026     0.254893   118.848233
	   35 B(7,2,15)       =    123.405390     0.000054     0.732702   124.138092
	   36 B(8,7,9)        =    110.411773     0.000019     0.244846   110.656619
	   37 B(8,7,10)       =    111.102050     0.000024     0.356901   111.458951
	   38 B(9,7,10)       =    110.395729     0.000024     0.228756   110.624485
	   39 B(12,11,13)     =    108.937897     0.000021     0.624367   109.562264
	   40 B(12,11,14)     =    108.340657     0.000014     0.430529   108.771186
	   41 B(13,11,14)     =    107.653056     0.000039     0.502652   108.155708
	   42 B(15,6,16)      =    111.560250     0.000005     0.060829   111.621079
	   43 B(15,6,17)      =    109.402326    -0.000010    -0.139212   109.263114
	   44 B(15,6,18)      =    108.387561    -0.000002     0.007777   108.395338
[...]
	             0.0002657370       -0.0000672741       -0.0000201264
	            -0.0000936869       -0.0000356736       -0.0000479390
	             0.0000462580       -0.0000075884       -0.0000073903
	             0.0000340359       -0.0000187494        0.0000091485
	             0.0000022322        0.0000023249       -0.0000122800
	             0.0000076171        0.0000036344        0.0000004506
	            -0.0000012992       -0.0000011911        0.0000052856
	            -0.0000996573        0.0000197234        0.0000097705
	             0.0000349038        0.0000015823       -0.0000144439
	             0.0000215506       -0.0000206793       -0.0000194744
	             0.0000083480       -0.0000137084        0.0000081412
	            -0.0000114483        0.0000428564        0.0000131372
	            -0.0000205124       -0.0000065768       -0.0000020599
	             0.0000162208       -0.0000042266        0.0000094306
	             0.0000033131       -0.0000167447       -0.0000091275
	            -0.0000004233        0.0000050896       -0.0000008245

	---Fragment 1 Intrafragment Coordinates---
	 - Coordinate -           - BOHR/RAD -       - ANG/DEG -
	 R(1,4)           =         2.445572	       1.294141
	 R(1,11)          =         2.760490	       1.460788
	 R(2,3)           =         2.571593	       1.360828
	 R(2,7)           =         2.758364	       1.459664
	 R(2,15)          =         2.469038	       1.306559
	 R(3,4)           =         3.111544	       1.646558
	 R(4,5)           =         2.307373	       1.221009
	 R(6,15)          =         2.808991	       1.486454
	 R(6,16)          =         2.057946	       1.089018
	 R(6,17)          =         2.063977	       1.092209
	 R(6,18)          =         2.076629	       1.098905
	 R(7,8)           =         2.067289	       1.093962
	 R(7,9)           =         2.059169	       1.089665
	 R(7,10)          =         2.062174	       1.091256
	 R(11,12)         =         2.073559	       1.097280
	 R(11,13)         =         2.064953	       1.092726
	 R(11,14)         =         2.074966	       1.098025
	 R(15,19)         =         2.058421	       1.089270
	 B(1,4,3)         =         1.887574	     108.150012
	 B(1,4,5)         =         2.489084	     142.613992
	 B(1,11,12)       =         1.937796	     111.027507
	 B(1,11,13)       =         1.903164	     109.043239
	 B(1,11,14)       =         1.936481	     110.952189
	 B(2,3,4)         =         1.870747	     107.185913
	 B(2,7,8)         =         1.883312	     107.905832
	 B(2,7,9)         =         1.878236	     107.615020
	 B(2,7,10)        =         1.905439	     109.173636
	 B(2,15,6)        =         2.161377	     123.837753
	 B(2,15,19)       =         2.001370	     114.670043
	 B(3,2,7)         =         1.981769	     113.547020
	 B(3,2,15)        =         2.014744	     115.436312
	 B(3,4,5)         =         1.906527	     109.235937
	 B(4,1,11)        =         2.015588	     115.484709
	 B(6,15,19)       =         2.070489	     118.630282
	 B(7,2,15)        =         2.149724	     123.170098
	 B(8,7,9)         =         1.927706	     110.449400
	 B(8,7,10)        =         1.940001	     111.153871
	 B(9,7,10)        =         1.927421	     110.433075
	 B(12,11,13)      =         1.906384	     109.227754
	 B(12,11,14)      =         1.886433	     108.084636
	 B(13,11,14)      =         1.892846	     108.452059
	 B(15,6,16)       =         1.945720	     111.481547
	 B(15,6,17)       =         1.910246	     109.449015
	 B(15,6,18)       =         1.892440	     108.428827
	 B(16,6,17)       =         1.916436	     109.803711
	 B(16,6,18)       =         1.910928	     109.488089
	 B(17,6,18)       =         1.886988	     108.116426
	 D(1,4,3,2)       =         0.170828	       9.787699
	 D(2,3,4,5)       =        -2.971941	    -170.279654
	 D(2,15,6,16)     =         0.406797	      23.307745
	 D(2,15,6,17)     =         2.530412	     144.981938
	 D(2,15,6,18)     =        -1.698054	     -97.291312
	 D(3,2,7,8)       =        -1.098102	     -62.916614
	 D(3,2,7,9)       =         0.982279	      56.280444
	 D(3,2,7,10)      =         3.074601	     176.161687
	 D(3,2,15,6)      =        -0.630618	     -36.131777
	 D(3,2,15,19)     =         2.851044	     163.352816
	 D(3,4,1,11)      =         3.014034	     172.691449
	 D(4,1,11,12)     =         0.571991	      32.772657
	 D(4,1,11,13)     =         2.673253	     153.166092
	 D(4,1,11,14)     =        -1.526230	     -87.446543
	 D(4,3,2,7)       =         1.655973	      94.880250
	 D(4,3,2,15)      =        -0.966291	     -55.364424
	 D(5,4,1,11)      =        -0.125730	      -7.203816
	 D(6,15,2,7)      =         3.085625	     176.793306
	 D(7,2,15,19)     =         0.284103	      16.277900
	 D(8,7,2,15)      =         1.478465	      84.709814
	 D(9,7,2,15)      =        -2.724339	    -156.093129
	 D(10,7,2,15)     =        -0.632017	     -36.211885
	 D(16,6,15,19)    =        -3.087389	    -176.894361
	 D(17,6,15,19)    =        -0.963774	     -55.220168
	 D(18,6,15,19)    =         1.090946	      62.506582
	 R(1,6)           =         5.263348	       2.785244
	 R(1,7)           =         6.041604	       3.197079
	 R(1,15)          =         4.294709	       2.272662
	 R(4,6)           =         5.885124	       3.114274
	 R(6,11)          =         7.064891	       3.738579
	 R(11,15)         =         6.661201	       3.524956

	Current energy   :      -455.0241808980

	Energy change for the previous step:
		Projected    :        -0.0000007004
		Actual       :        -0.0000006074

	Performing Bofill update.
	Previous computed or guess Hessian on step 1.
	Steps to be used in Hessian update: 17 16
	Taking PRFO optimization step.
	Maximizing along 1 lowest eigenvalue of Hessian.

 RFO min eigenvalues
 -0.000002 -0.000000 -0.000000 -0.000000 -0.000000 -0.000000 -0.000000 -0.000000
 -0.000000 -0.000000 -0.000000 -0.000000 -0.000000  0.000000  0.000000  0.000000
  0.000000  0.000000  0.000000  0.000000  0.000000  0.000000  0.000000  0.000000
  0.000000  0.000000  0.000000  0.000000  0.000195  0.002589  0.005572  0.012400
  0.014314  0.018811  0.023593  0.025402  0.044590  0.046051  0.072866  0.074729
  0.076598  0.077052  0.083727  0.097870  0.098871  0.154394  0.155960  0.159307
  0.159832  0.159966  0.160008  0.160033  0.160137  0.160203  0.162257  0.166484
  0.188941  0.205184  0.224248  0.246010  0.246947  0.315245  0.324477  0.340809
  0.343963  0.344444  0.347389  0.348120  0.351230  0.352278  0.353404  0.354695
  0.355343  0.360427  0.534294  0.665235  0.710167  1.025704

 RFO max eigenvalues
 -0.009036  0.000000
	|RFO target step|  :        0.0756006982
	RFO gradient       :       -0.0000285333
	RFO hessian        :        0.0003752590
	Projected Delta(E) :       -0.0000010786

	Back-transformation to cartesian coordinates...
	Could not converge backtransformation.
	Using first guess instead.

	--- Internal Coordinate Step in ANG or DEG, aJ/ANG or AJ/DEG ---
	 ---------------------------------------------------------------------------
	   Coordinate                Previous        Force       Change         New 
	   ----------                --------       ------       ------       ------
	    1 R(1,4)          =      1.294141    -0.000169    -0.000163     1.293978
	    2 R(1,11)         =      1.460788     0.000070    -0.000279     1.460509
	    3 R(2,3)          =      1.360828    -0.001409    -0.000105     1.360724
	    4 R(2,7)          =      1.459664    -0.000252     0.000115     1.459779
	    5 R(2,15)         =      1.306559    -0.000082     0.000191     1.306750
	    6 R(3,4)          =      1.646558     0.001763     0.001423     1.647981
	    7 R(4,5)          =      1.221009    -0.000867    -0.000249     1.220760
	    8 R(6,15)         =      1.486454     0.000236    -0.000025     1.486430
	    9 R(6,16)         =      1.089018    -0.000119     0.000043     1.089061
	   10 R(6,17)         =      1.092209     0.000074    -0.000003     1.092207
	   11 R(6,18)         =      1.098905     0.000014     0.000008     1.098913
	   12 R(7,8)          =      1.093962     0.000077    -0.000013     1.093949
	   13 R(7,9)          =      1.089665    -0.000003     0.000023     1.089688
	   14 R(7,10)         =      1.091256    -0.000012     0.000010     1.091266
	   15 R(11,12)        =      1.097280     0.000206     0.000710     1.097990
	   16 R(11,13)        =      1.092726     0.000183     0.000594     1.093320
	   17 R(11,14)        =      1.098025     0.000146     0.000782     1.098806
	   18 R(15,19)        =      1.089270    -0.000009    -0.000009     1.089261
	   19 B(1,4,3)        =    108.150012     0.000000    -0.065029   108.084983
	   20 B(1,4,5)        =    142.613992     0.000003     0.051863   142.665855
	   21 B(1,11,12)      =    111.027507     0.000003    -0.051349   110.976158
	   22 B(1,11,13)      =    109.043239     0.000002    -0.065122   108.978117
	   23 B(1,11,14)      =    110.952189    -0.000001     0.058458   111.010647
	   24 B(2,3,4)        =    107.185913    -0.000002    -0.030627   107.155286
	   25 B(2,7,8)        =    107.905832     0.000001    -0.019288   107.886544
	   26 B(2,7,9)        =    107.615020    -0.000000     0.016184   107.631204
	   27 B(2,7,10)       =    109.173636    -0.000001     0.005142   109.178778
	   28 B(2,15,6)       =    123.837753     0.000004    -0.041298   123.796454
	   29 B(2,15,19)      =    114.670043    -0.000002     0.017318   114.687361
	   30 B(3,2,7)        =    113.547020    -0.000000     0.003064   113.550084
	   31 B(3,2,15)       =    115.436312     0.000000    -0.017399   115.418913
	   32 B(3,4,5)        =    109.235937    -0.000003     0.013220   109.249157
	   33 B(4,1,11)       =    115.484709     0.000006    -0.075155   115.409554
	   34 B(6,15,19)      =    118.630282    -0.000002    -0.002699   118.627583
	   35 B(7,2,15)       =    123.170098    -0.000002    -0.052240   123.117858
	   36 B(8,7,9)        =    110.449400    -0.000000     0.007852   110.457252
	   37 B(8,7,10)       =    111.153871    -0.000000    -0.003136   111.150735
	   38 B(9,7,10)       =    110.433075     0.000000    -0.006394   110.426682
	   39 B(12,11,13)     =    109.227754    -0.000002    -0.000084   109.227671
	   40 B(12,11,14)     =    108.084636    -0.000001    -0.014342   108.070294
	   41 B(13,11,14)     =    108.452059    -0.000002     0.075529   108.527588
	   42 B(15,6,16)      =    111.481547    -0.000000    -0.009740   111.471807
	   43 B(15,6,17)      =    109.449015     0.000001    -0.009839   109.439176
	   44 B(15,6,18)      =    108.428827     0.000000     0.011630   108.440457
	   45 B(16,6,17)      =    109.803711    -0.000000     0.008285   109.811996
	   46 B(16,6,18)      =    109.488089    -0.000000    -0.003486   109.484603
	   47 B(17,6,18)      =    108.116426    -0.000001     0.003555   108.119981
	   48 D(1,4,3,2)      =      9.787699    -0.000000    -0.205329     9.582370
	   49 D(2,3,4,5)      =   -170.279654     0.000000    -0.155922  -170.435576
	   50 D(2,15,6,16)    =     23.307745    -0.000001    -0.118774    23.188970
	   51 D(2,15,6,17)    =    144.981938    -0.000000    -0.121432   144.860505
	   52 D(2,15,6,18)    =    -97.291312    -0.000000    -0.116020   -97.407332
	   53 D(3,2,7,8)      =    -62.916614     0.000000     0.221957   -62.694657
	   54 D(3,2,7,9)      =     56.280444     0.000000     0.229610    56.510054
	   55 D(3,2,7,10)     =    176.161687     0.000000     0.234291   176.395979
	   56 D(3,2,15,6)     =    -36.131777     0.000000    -0.086498   -36.218276
	   57 D(3,2,15,19)    =    163.352816    -0.000000     0.000519   163.353335
	   58 D(3,4,1,11)     =    172.691449     0.000000    -0.126119   172.565330
	   59 D(4,1,11,12)    =     32.772657     0.000000     2.445917    35.218574
	   60 D(4,1,11,13)    =    153.166092     0.000000     2.371652   155.537744
	   61 D(4,1,11,14)    =    -87.446543     0.000000     2.459259   -84.987284
	   62 D(4,3,2,7)      =     94.880250    -0.000000    -0.013600    94.866649
	   63 D(4,3,2,15)     =    -55.364424     0.000001     0.117060   -55.247364
	   64 D(5,4,1,11)     =     -7.203816    -0.000000    -0.202916    -7.406732
	   65 D(6,15,2,7)     =    176.793306     0.000001     0.038458   176.831765
	   66 D(7,2,15,19)    =     16.277900     0.000000     0.125476    16.403376
	   67 D(8,7,2,15)     =     84.709814    -0.000000     0.093503    84.803317
	   68 D(9,7,2,15)     =   -156.093129    -0.000000     0.101156  -155.991972
	   69 D(10,7,2,15)    =    -36.211885    -0.000000     0.105838   -36.106048
	   70 D(16,6,15,19)   =   -176.894361    -0.000000    -0.205788  -177.100149
	   71 D(17,6,15,19)   =    -55.220168    -0.000000    -0.208446   -55.428613
	   72 D(18,6,15,19)   =     62.506582    -0.000000    -0.203033    62.303549
	   73 R(1,6)          =      2.785244     0.000125    -0.000025     2.785218
	   74 R(1,7)          =      3.197079     0.000064    -0.003234     3.193845
	   75 R(1,15)         =      2.272662    -0.000045    -0.002086     2.270576
	   76 R(4,6)          =      3.114274    -0.000048    -0.001806     3.112468
	   77 R(6,11)         =      3.738579    -0.000129    -0.003271     3.735308
	   78 R(11,15)        =      3.524956    -0.000156    -0.003803     3.521153
	 ---------------------------------------------------------------------------
	Successfully symmetrized geometry.

  ==> Convergence Check <==

  Measures of convergence in internal coordinates in au.
  Criteria marked as inactive (o), active & met (*), and active & unmet ( ).
  ---------------------------------------------------------------------------------------------
   Step     Total Energy     Delta E     MAX Force     RMS Force      MAX Disp      RMS Disp   
  ---------------------------------------------------------------------------------------------
    Convergence Criteria    1.00e-06 *    3.00e-04 *             o    1.20e-03 *             o
  ---------------------------------------------------------------------------------------------
     18    -455.02418090   -6.07e-07 *    2.14e-04 *    3.86e-05 o    4.29e-02      8.56e-03 o  ~
  ---------------------------------------------------------------------------------------------


  **** Optimization is complete! (in 18 steps) ****

  ==> Optimization Summary <==

  Measures of convergence in internal coordinates in au.
  --------------------------------------------------------------------------------------------------------------- ~
   Step         Total Energy             Delta E       MAX Force       RMS Force        MAX Disp        RMS Disp  ~
  --------------------------------------------------------------------------------------------------------------- ~
      1    -455.021481676371   -455.021481676371      0.04068406      0.00593366      0.04773661      0.01484396  ~
      2    -455.023658888785     -0.002177212413      0.00596253      0.00102156      0.15522011      0.04485976  ~
      3    -455.023035458561      0.000623430223      0.00905855      0.00237016      0.24590378      0.05657213  ~
      4    -455.021268416699      0.001767041862      0.02286889      0.00440268      0.26637715      0.05650139  ~
      5    -455.020382554215      0.000885862484      0.02600442      0.00513722      0.13794932      0.03317366  ~
      6    -455.023691424352     -0.003308870137      0.00714926      0.00159693      0.06856673      0.02043518  ~
      7    -455.024210103737     -0.000518679385      0.00349330      0.00084671      0.25797016      0.05676803  ~
      8    -455.023616047278      0.000594056459      0.01533466      0.00323698      0.16888919      0.05641675  ~
      9    -455.023460217050      0.000155830228      0.01161253      0.00242488      0.24397432      0.05661978  ~
     10    -455.023818775992     -0.000358558943      0.00445771      0.00101424      0.27186012      0.05684968  ~
     11    -455.022165617493      0.001653158500      0.01944786      0.00383131      0.06069681      0.01686078  ~
     12    -455.024070484980     -0.001904867487      0.00135749      0.00033803      0.03007405      0.01105153  ~
     13    -455.024152592586     -0.000082107607      0.00072883      0.00020087      0.04878642      0.01885185  ~
     14    -455.024175111642     -0.000022519056      0.00049817      0.00015578      0.03474987      0.00730709  ~
     15    -455.024178074634     -0.000002962993      0.00036521      0.00009178      0.04332166      0.00887127  ~
     16    -455.024177287339      0.000000787295      0.00041417      0.00012776      0.02026905      0.00423628  ~
     17    -455.024180290577     -0.000003003238      0.00017678      0.00005249      0.00316614      0.00100538  ~
     18    -455.024180897994     -0.000000607416      0.00021397      0.00003862      0.04292216      0.00855954  ~
  --------------------------------------------------------------------------------------------------------------- ~

	Writing optimization data to binary file.
	Final energy is   -455.0241808979936
	Final (previous) structure:
	Cartesian Geometry (in Angstrom)
	    N    -0.8906459208   0.3125498095   0.6436967944
	    N     1.4225524984  -0.2322045272  -0.0005559560
	    O     0.5631337796  -0.8486550579  -0.8568512049
	    C    -0.9614397990  -0.5685227306  -0.3015546463
	    O    -1.7503485750  -1.2607648616  -0.9254832298
	    C     0.7476449554   1.9692693756  -0.8823655575
	    C     1.9427250856  -1.1146104359   1.0393469447
	    H     1.0988240893  -1.4488209268   1.6499920978
	    H     2.4151536240  -1.9634025050   0.5456534107
	    H     2.6721314696  -0.5691502222   1.6404111226
	    C    -2.1727670895   0.8053752550   1.1408793008
	    H    -2.9398241129   0.0220220735   1.0961076676
	    H    -2.0518424216   1.1318415069   2.1766626025
	    H    -2.5225833140   1.6593644959   0.5459093863
	    C     1.2115451361   1.0438694762   0.1843948034
	    H     0.2285345130   1.4343802395  -1.6763292883
	    H     0.0852233159   2.7215123079  -0.4484881458
	    H     1.6235359605   2.4851942842  -1.2997719824
	    H     1.7013398475   1.4631231125   1.0623672478
	Saving final (previous) structure.
	Removing binary optimization data file.
			--------------------------
			 OPTKING Finished Execution 
			--------------------------

    Final optimized geometry and variables:
    Molecular point group: c1
    Full point group: C1

    Geometry (in Angstrom), charge = 0, multiplicity = 1:

    N           -0.890645920780     0.312549809507     0.643696794401
    N            1.422552498418    -0.232204527187    -0.000555956041
    O            0.563133779579    -0.848655057895    -0.856851204860
    C           -0.961439798960    -0.568522730575    -0.301554646328
    O           -1.750348575007    -1.260764861648    -0.925483229825
    C            0.747644955407     1.969269375561    -0.882365557536
    C            1.942725085620    -1.114610435911     1.039346944681
    H            1.098824089282    -1.448820926807     1.649992097832
    H            2.415153623976    -1.963402505049     0.545653410686
    H            2.672131469582    -0.569150222186     1.640411122607
    C           -2.172767089482     0.805375255022     1.140879300779
    H           -2.939824112904     0.022022073505     1.096107667602
    H           -2.051842421571     1.131841506946     2.176662602510
    H           -2.522583313952     1.659364495864     0.545909386265
    C            1.211545136145     1.043869476171     0.184394803385
    H            0.228534512952     1.434380239458    -1.676329288278
    H            0.085223315915     2.721512307926    -0.448488145827
    H            1.623535960547     2.485194284190    -1.299771982414
    H            1.701339847474     1.463123112451     1.062367247769

	Removing binary optimization data file.
	Cleaning optimization helper files.

    Psi4 stopped on: Monday, 14 January 2019 05:20PM
    Psi4 wall time for execution: 0:17:02.84

*** Psi4 exiting successfully. Buy a developer a beer!
