
    -----------------------------------------------------------------------
          Psi4: An Open-Source Ab Initio Electronic Structure Package
                               Psi4 1.2.1 release

                         Git: Rev {HEAD} 406f4de 


    R. M. Parrish, L. A. Burns, D. G. A. Smith, A. C. Simmonett,
    A. E. DePrince III, E. G. Hohenstein, U. Bozkaya, A. Yu. Sokolov,
    R. Di Remigio, R. M. Richard, J. F. Gonthier, A. M. James,
    H. R. McAlexander, A. Kumar, M. Saitow, X. Wang, B. P. Pritchard,
    P. Verma, H. F. Schaefer III, K. Patkowski, R. A. King, E. F. Valeev,
    F. A. Evangelista, J. M. Turney, T. D. Crawford, and C. D. Sherrill,
    J. Chem. Theory Comput. 13(7) pp 3185--3197 (2017).
    (doi: 10.1021/acs.jctc.7b00174)


                         Additional Contributions by
    P. Kraus, H. Kruse, M. H. Lechner, M. C. Schieber, and R. A. Shaw

    -----------------------------------------------------------------------


    Psi4 started on: Tuesday, 12 February 2019 01:49PM

    Process ID: 1014
    Host:       localhost.localdomain
    PSIDATADIR: /root/psi4conda/share/psi4
    Memory:     500.0 MiB
    Threads:    1
    
  ==> Input File <==

--------------------------------------------------------------------------
molecule{
0 1
 N  -0.9212862016   0.2426167092   0.5919490556  
 N   1.3937572257  -0.2598049576  -0.0333292051  
 O   0.5313915150  -0.8600141985  -0.8741478520  
 C  -0.9374945439  -0.6165350072  -0.3631641670  
 O  -1.7079703465  -1.2838484964  -1.0001613920  
 C   0.7280376494   1.9429916745  -0.8859546938  
 C   1.9145706569  -1.1443581281   0.9946128356  
 H   1.0758410188  -1.4655957906   1.6131569551  
 H   2.3699591919  -1.9996563756   0.5048508128  
 H   2.6527357465  -0.6129868592   1.5891524340  
 C  -2.2114750416   0.6712669187   1.0915356359  
 H  -3.0228756920   0.0891213561   0.6472964044  
 H  -2.2537464013   0.5632990528   2.1762285376  
 H  -2.3846517311   1.7267248678   0.8614878303  
 C   1.2190338205   1.0069292021   0.1508177612  
 H   0.2531976761   1.4128634817  -1.7042302426  
 H   0.0233823665   2.6395548385  -0.4377973746  
 H   1.5826575837   2.5155197173  -1.2579510805  
 H   1.7109845070   1.4124339945   1.0280247451  

}

set{
   basis 6-31+G(d)
   freeze_core True
   opt_type ts
}

set_num_threads(24)
optimize('m06-2x')
--------------------------------------------------------------------------
  Threads set to 24 by Python driver.
gradient() will perform analytic gradient computation.

*** tstart() called on localhost.localdomain
*** at Tue Feb 12 13:49:56 2019

   => Loading Basis Set <=

    Name: 6-31+G(D)
    Role: ORBITAL
    Keyword: BASIS
    atoms 1-2                entry N          line   138 file /root/psi4conda/share/psi4/basis/6-31pg_d_.gbs 
    atoms 3, 5               entry O          line   157 file /root/psi4conda/share/psi4/basis/6-31pg_d_.gbs 
    atoms 4, 6-7, 11, 15     entry C          line   119 file /root/psi4conda/share/psi4/basis/6-31pg_d_.gbs 
    atoms 8-10, 12-14, 16-19 entry H          line    46 file /root/psi4conda/share/psi4/basis/6-31pg_d_.gbs 


         ---------------------------------------------------------
                                   SCF
            by Justin Turney, Rob Parrish, Andy Simmonett
                             and Daniel Smith
                              RKS Reference
                       24 Threads,    500 MiB Core
         ---------------------------------------------------------

  ==> Geometry <==

    Molecular point group: c1
    Full point group: C1

    Geometry (in Angstrom), charge = 0, multiplicity = 1:

       Center              X                  Y                   Z               Mass       
    ------------   -----------------  -----------------  -----------------  -----------------
         N           -0.908770518229     0.287803398200     0.632259503412    14.003074004780
         N            1.406272909071    -0.214618268600     0.006981242712    14.003074004780
         O            0.543907198371    -0.814827509500    -0.833837404188    15.994914619560
         C           -0.924978860529    -0.571348318200    -0.322853719188    12.000000000000
         O           -1.695454663129    -1.238661807400    -0.959850944188    15.994914619560
         C            0.740553332771     1.988178363500    -0.845644245988    12.000000000000
         C            1.927086340271    -1.099171439100     1.034923283412    12.000000000000
         H            1.088356702171    -1.420409101600     1.653467402912     1.007825032070
         H            2.382474875271    -1.954469686600     0.545161260612     1.007825032070
         H            2.665251429871    -0.567800170200     1.629462881812     1.007825032070
         C           -2.198959358229     0.716453607700     1.131846083712    12.000000000000
         H           -3.010360008629     0.134308045100     0.687606852212     1.007825032070
         H           -2.241230717929     0.608485741800     2.216538985412     1.007825032070
         H           -2.372136047729     1.771911556800     0.901798278112     1.007825032070
         C            1.231549503871     1.052115891100     0.191128209012    12.000000000000
         H            0.265713359471     1.458050170700    -1.663919794788     1.007825032070
         H            0.035898049871     2.684741527500    -0.397486926788     1.007825032070
         H            1.595173267071     2.560706406300    -1.217640632688     1.007825032070
         H            1.723500190371     1.457620683500     1.068335192912     1.007825032070

  Running in c1 symmetry.

  Rotational constants: A =      0.07106  B =      0.04756  C =      0.04033 [cm^-1]
  Rotational constants: A =   2130.22400  B =   1425.68071  C =   1208.94618 [MHz]
  Nuclear repulsion =  489.752803953702198

  Charge       = 0
  Multiplicity = 1
  Electrons    = 70
  Nalpha       = 35
  Nbeta        = 35

  ==> Algorithm <==

  SCF Algorithm Type is DF.
  DIIS enabled.
  MOM disabled.
  Fractional occupation disabled.
  Guess Type is SAD.
  Energy threshold   = 1.00e-08
  Density threshold  = 1.00e-08
  Integral threshold = 0.00e+00

  ==> Primary Basis <==

  Basis Set: 6-31+G(D)
    Blend: 6-31+G(D)
    Number of shells: 92
    Number of basis function: 191
    Number of Cartesian functions: 191
    Spherical Harmonics?: false
    Max angular momentum: 2

  ==> DFT Potential <==

   => Composite Functional: M06-2X <= 

    Hybrid M06-2X Meta-GGA XC Functional

    Y. Zhao and D. G. Truhlar,  Theor. Chem. Acc., 120, 215, 2008


    Deriv               =              1
    GGA                 =           TRUE
    Meta                =           TRUE

    Exchange Hybrid     =           TRUE
    MP2 Hybrid          =          FALSE

   => Exchange Functionals <=

    1.0000   XC_HYB_MGGA_X_M06_2X

   => Exact (HF) Exchange <=

    0.5400               HF 

   => Correlation Functionals <=

    1.0000   XC_MGGA_C_M06_2X

   => Molecular Quadrature <=

    Radial Scheme       =       TREUTLER
    Pruning Scheme      =           FLAT
    Nuclear Scheme      =       TREUTLER

    BS radius alpha     =              1
    Pruning alpha       =              1
    Radial Points       =             75
    Spherical Points    =            302
    Total Points        =         430350
    Total Blocks        =           3152
    Max Points          =            256
    Max Functions       =            188

   => Loading Basis Set <=

    Name: (6-31+G(D) AUX)
    Role: JKFIT
    Keyword: DF_BASIS_SCF
    atoms 1-2                entry N          line   252 file /root/psi4conda/share/psi4/basis/heavy-aug-cc-pvdz-jkfit.gbs 
    atoms 3, 5               entry O          line   310 file /root/psi4conda/share/psi4/basis/heavy-aug-cc-pvdz-jkfit.gbs 
    atoms 4, 6-7, 11, 15     entry C          line   194 file /root/psi4conda/share/psi4/basis/heavy-aug-cc-pvdz-jkfit.gbs 
    atoms 8-10, 12-14, 16-19 entry H          line   116 file /root/psi4conda/share/psi4/basis/heavy-aug-cc-pvdz-jkfit.gbs 

  ==> Pre-Iterations <==

   -------------------------------------------------------
    Irrep   Nso     Nmo     Nalpha   Nbeta   Ndocc  Nsocc
   -------------------------------------------------------
     A        191     191       0       0       0       0
   -------------------------------------------------------
    Total     191     191      35      35      35       0
   -------------------------------------------------------

  ==> Integral Setup <==

  ==> DiskDFJK: Density-Fitted J/K Matrices <==

    J tasked:                  Yes
    K tasked:                  Yes
    wK tasked:                  No
    OpenMP threads:             24
    Integrals threads:          24
    Memory (MB):               375
    Algorithm:                Core
    Integral Cache:           NONE
    Schwarz Cutoff:          1E-12
    Fitting Condition:       1E-12

   => Auxiliary Basis Set <=

  Basis Set: (6-31+G(D) AUX)
    Blend: HEAVY-AUG-CC-PVDZ-JKFIT
    Number of shells: 342
    Number of basis function: 1159
    Number of Cartesian functions: 1159
    Spherical Harmonics?: false
    Max angular momentum: 3

  Minimum eigenvalue in the overlap matrix is 5.3983609440E-05.
  Using Symmetric Orthogonalization.

  SCF Guess: Superposition of Atomic Densities via on-the-fly atomic UHF.

  ==> Iterations <==

                           Total Energy        Delta E     RMS |[F,P]|

   @DF-RKS iter   0:  -458.67082203064115   -4.58671e+02   1.10129e-01 
   @DF-RKS iter   1:  -456.01937138857835    2.65145e+00   1.21079e-02 
   @DF-RKS iter   2:  -455.95033374796731    6.90376e-02   1.37877e-02 DIIS
   @DF-RKS iter   3:  -456.20232547055423   -2.51992e-01   1.97791e-03 DIIS
   @DF-RKS iter   4:  -456.20686996032896   -4.54449e-03   1.30531e-03 DIIS
   @DF-RKS iter   5:  -456.20816165430779   -1.29169e-03   4.66129e-04 DIIS
   @DF-RKS iter   6:  -456.20830763211683   -1.45978e-04   1.18736e-04 DIIS
   @DF-RKS iter   7:  -456.20832739314989   -1.97610e-05   5.36563e-05 DIIS
   @DF-RKS iter   8:  -456.20833043573685   -3.04259e-06   1.52349e-05 DIIS
   @DF-RKS iter   9:  -456.20833091106323   -4.75326e-07   4.02621e-06 DIIS
   @DF-RKS iter  10:  -456.20833094334864   -3.22854e-08   2.89511e-06 DIIS
   @DF-RKS iter  11:  -456.20833095000143   -6.65278e-09   7.56841e-07 DIIS
   @DF-RKS iter  12:  -456.20833095075750   -7.56074e-10   2.88936e-07 DIIS
   @DF-RKS iter  13:  -456.20833095086982   -1.12323e-10   6.33707e-08 DIIS
   @DF-RKS iter  14:  -456.20833095088562   -1.58025e-11   2.86419e-08 DIIS
   @DF-RKS iter  15:  -456.20833095088761   -1.98952e-12   1.19132e-08 DIIS
   @DF-RKS iter  16:  -456.20833095088818   -5.68434e-13   7.50142e-09 DIIS

  ==> Post-Iterations <==

    Orbital Energies [Eh]
    ---------------------

    Doubly Occupied:                                                      

       1A    -19.694572     2A    -19.594373     3A    -14.901506  
       4A    -14.724829     5A    -10.672005     6A    -10.657228  
       7A    -10.612200     8A    -10.577915     9A    -10.552722  
      10A     -1.267606    11A     -1.144379    12A     -1.026819  
      13A     -0.988862    14A     -0.909915    15A     -0.824518  
      16A     -0.779777    17A     -0.716151    18A     -0.641141  
      19A     -0.625979    20A     -0.599756    21A     -0.559500  
      22A     -0.534388    23A     -0.527931    24A     -0.506812  
      25A     -0.499386    26A     -0.496398    27A     -0.492097  
      28A     -0.476880    29A     -0.454199    30A     -0.449056  
      31A     -0.403131    32A     -0.375891    33A     -0.357566  
      34A     -0.295946    35A     -0.274936  

    Virtual:                                                              

      36A     -0.026743    37A     -0.003708    38A      0.019581  
      39A      0.025602    40A      0.031513    41A      0.047496  
      42A      0.054889    43A      0.060225    44A      0.061017  
      45A      0.067677    46A      0.078820    47A      0.086004  
      48A      0.096550    49A      0.102995    50A      0.110173  
      51A      0.118528    52A      0.121383    53A      0.129827  
      54A      0.137859    55A      0.143984    56A      0.152419  
      57A      0.166421    58A      0.174874    59A      0.193979  
      60A      0.203418    61A      0.209483    62A      0.219914  
      63A      0.223026    64A      0.232057    65A      0.241837  
      66A      0.247838    67A      0.259050    68A      0.267980  
      69A      0.269567    70A      0.277303    71A      0.280231  
      72A      0.295487    73A      0.301704    74A      0.309327  
      75A      0.324409    76A      0.340160    77A      0.349565  
      78A      0.351953    79A      0.361694    80A      0.363919  
      81A      0.371390    82A      0.379925    83A      0.387841  
      84A      0.405385    85A      0.418343    86A      0.450126  
      87A      0.456557    88A      0.474291    89A      0.488183  
      90A      0.518188    91A      0.662351    92A      0.669869  
      93A      0.684665    94A      0.723349    95A      0.725812  
      96A      0.760662    97A      0.767401    98A      0.772361  
      99A      0.796587   100A      0.806811   101A      0.824826  
     102A      0.829990   103A      0.859864   104A      0.885551  
     105A      0.923011   106A      0.951947   107A      0.968271  
     108A      0.989108   109A      0.993464   110A      1.007762  
     111A      1.016329   112A      1.040574   113A      1.045275  
     114A      1.055823   115A      1.080014   116A      1.096843  
     117A      1.122180   118A      1.140967   119A      1.147561  
     120A      1.167652   121A      1.204384   122A      1.241285  
     123A      1.262569   124A      1.286705   125A      1.310419  
     126A      1.351438   127A      1.390538   128A      1.402305  
     129A      1.403907   130A      1.434286   131A      1.441625  
     132A      1.451068   133A      1.493756   134A      1.500261  
     135A      1.513547   136A      1.573914   137A      1.609119  
     138A      1.621046   139A      1.656738   140A      1.689939  
     141A      1.710454   142A      1.746576   143A      1.768146  
     144A      1.809590   145A      1.888225   146A      1.899177  
     147A      1.928952   148A      1.962432   149A      1.978547  
     150A      1.994661   151A      2.032830   152A      2.069981  
     153A      2.085140   154A      2.100925   155A      2.142296  
     156A      2.162284   157A      2.211567   158A      2.223269  
     159A      2.268582   160A      2.283635   161A      2.288124  
     162A      2.299115   163A      2.317241   164A      2.345699  
     165A      2.369462   166A      2.413908   167A      2.430372  
     168A      2.459218   169A      2.500338   170A      2.532366  
     171A      2.589227   172A      2.643932   173A      2.759591  
     174A      2.833551   175A      2.850636   176A      2.880061  
     177A      2.892235   178A      2.942298   179A      3.059186  
     180A      3.174242   181A      3.206841   182A      3.380681  
     183A      4.171837   184A      4.260553   185A      4.299061  
     186A      4.395555   187A      4.452292   188A      4.483342  
     189A      4.509144   190A      4.647703   191A      4.729499  

    Final Occupation by Irrep:
              A 
    DOCC [    35 ]

  Energy converged.

  @DF-RKS Final Energy:  -456.20833095088818

   => Energetics <=

    Nuclear Repulsion Energy =            489.7528039537021982
    One-Electron Energy =               -1590.9336693044824642
    Two-Electron Energy =                 674.6948375850396360
    DFT Exchange-Correlation Energy =     -29.7223031851474460
    Empirical Dispersion Energy =           0.0000000000000000
    VV10 Nonlocal Energy =                  0.0000000000000000
    Total Energy =                       -456.2083309508881257



Properties will be evaluated at   0.000000,   0.000000,   0.000000 [a0]

Properties computed using the SCF density matrix

  Nuclear Dipole Moment: [e a0]
     X:     1.9923      Y:     6.3020      Z:     5.0737

  Electronic Dipole Moment: [e a0]
     X:     0.1817      Y:    -4.7805      Z:    -3.8394

  Dipole Moment: [e a0]
     X:     2.1740      Y:     1.5215      Z:     1.2343     Total:     2.9265

  Dipole Moment: [D]
     X:     5.5257      Y:     3.8674      Z:     3.1372     Total:     7.4385


*** tstop() called on localhost.localdomain at Tue Feb 12 13:50:12 2019
Module time:
	user time   =     326.34 seconds =       5.44 minutes
	system time =       6.07 seconds =       0.10 minutes
	total time  =         16 seconds =       0.27 minutes
Total time:
	user time   =     326.34 seconds =       5.44 minutes
	system time =       6.07 seconds =       0.10 minutes
	total time  =         16 seconds =       0.27 minutes

*** tstart() called on localhost.localdomain
*** at Tue Feb 12 13:50:12 2019


         ------------------------------------------------------------
                                   SCF GRAD                          
                          Rob Parrish, Justin Turney,                
                       Andy Simmonett, and Alex Sokolov              
         ------------------------------------------------------------

  ==> Geometry <==

    Molecular point group: c1
    Full point group: C1

    Geometry (in Angstrom), charge = 0, multiplicity = 1:

       Center              X                  Y                   Z               Mass       
    ------------   -----------------  -----------------  -----------------  -----------------
         N           -0.908770518229     0.287803398200     0.632259503412    14.003074004780
         N            1.406272909071    -0.214618268600     0.006981242712    14.003074004780
         O            0.543907198371    -0.814827509500    -0.833837404188    15.994914619560
         C           -0.924978860529    -0.571348318200    -0.322853719188    12.000000000000
         O           -1.695454663129    -1.238661807400    -0.959850944188    15.994914619560
         C            0.740553332771     1.988178363500    -0.845644245988    12.000000000000
         C            1.927086340271    -1.099171439100     1.034923283412    12.000000000000
         H            1.088356702171    -1.420409101600     1.653467402912     1.007825032070
         H            2.382474875271    -1.954469686600     0.545161260612     1.007825032070
         H            2.665251429871    -0.567800170200     1.629462881812     1.007825032070
         C           -2.198959358229     0.716453607700     1.131846083712    12.000000000000
         H           -3.010360008629     0.134308045100     0.687606852212     1.007825032070
         H           -2.241230717929     0.608485741800     2.216538985412     1.007825032070
         H           -2.372136047729     1.771911556800     0.901798278112     1.007825032070
         C            1.231549503871     1.052115891100     0.191128209012    12.000000000000
         H            0.265713359471     1.458050170700    -1.663919794788     1.007825032070
         H            0.035898049871     2.684741527500    -0.397486926788     1.007825032070
         H            1.595173267071     2.560706406300    -1.217640632688     1.007825032070
         H            1.723500190371     1.457620683500     1.068335192912     1.007825032070

  Nuclear repulsion =  489.752803953702198

  ==> Basis Set <==

  Basis Set: 6-31+G(D)
    Blend: 6-31+G(D)
    Number of shells: 92
    Number of basis function: 191
    Number of Cartesian functions: 191
    Spherical Harmonics?: false
    Max angular momentum: 2

  ==> DFJKGrad: Density-Fitted SCF Gradients <==

    Gradient:                    1
    J tasked:                  Yes
    K tasked:                  Yes
    wK tasked:                  No
    OpenMP threads:             24
    Integrals threads:          24
    Memory (MB):               375
    Schwarz Cutoff:          0E+00
    Fitting Condition:       1E-12

   => Auxiliary Basis Set <=

  Basis Set: (6-31+G(D) AUX)
    Blend: HEAVY-AUG-CC-PVDZ-JKFIT
    Number of shells: 342
    Number of basis function: 1159
    Number of Cartesian functions: 1159
    Spherical Harmonics?: false
    Max angular momentum: 3

  ==> DFT Potential <==

   => Composite Functional: M06-2X <= 

    Hybrid M06-2X Meta-GGA XC Functional

    Y. Zhao and D. G. Truhlar,  Theor. Chem. Acc., 120, 215, 2008


    Deriv               =              1
    GGA                 =           TRUE
    Meta                =           TRUE

    Exchange Hybrid     =           TRUE
    MP2 Hybrid          =          FALSE

   => Exchange Functionals <=

    1.0000   XC_HYB_MGGA_X_M06_2X

   => Exact (HF) Exchange <=

    0.5400               HF 

   => Correlation Functionals <=

    1.0000   XC_MGGA_C_M06_2X

   => Molecular Quadrature <=

    Radial Scheme       =       TREUTLER
    Pruning Scheme      =           FLAT
    Nuclear Scheme      =       TREUTLER

    BS radius alpha     =              1
    Pruning alpha       =              1
    Radial Points       =             75
    Spherical Points    =            302
    Total Points        =         430350
    Total Blocks        =           3152
    Max Points          =            256
    Max Functions       =            188


  -Total Gradient:
     Atom            X                  Y                   Z
    ------   -----------------  -----------------  -----------------
       1        0.000337767753    -0.005027367766    -0.005482817230
       2       -0.003008496868     0.005125666187     0.000555609935
       3        0.001698644750     0.001265659304     0.001981382502
       4       -0.009409177723    -0.002220776074    -0.001596348589
       5        0.009281844379     0.007863810114     0.007405594625
       6       -0.000537353433    -0.000518602397     0.000264845224
       7        0.000379711597     0.000046337661     0.000359658089
       8        0.001995076638     0.000886613642    -0.001659579444
       9       -0.001244213619     0.002081263675     0.001379336266
      10       -0.001967358225    -0.001307113934    -0.001530318987
      11       -0.001352974676     0.000372363715     0.000472048963
      12        0.002293944734     0.001482533282     0.001064009782
      13       -0.000172597940     0.000479446489    -0.002819527227
      14        0.000122875600    -0.002806472968     0.000941834759
      15        0.001235273035    -0.004617691451    -0.001873321194
      16        0.001577772288     0.001193469656     0.002477085680
      17        0.002146167776    -0.001857255376    -0.001099337891
      18       -0.001980437997    -0.001456472811     0.001309532013
      19       -0.001176777262    -0.001131805347    -0.002150575355


*** tstop() called on localhost.localdomain at Tue Feb 12 13:50:16 2019
Module time:
	user time   =      75.14 seconds =       1.25 minutes
	system time =       2.87 seconds =       0.05 minutes
	total time  =          4 seconds =       0.07 minutes
Total time:
	user time   =     401.52 seconds =       6.69 minutes
	system time =       8.94 seconds =       0.15 minutes
	total time  =         20 seconds =       0.33 minutes

			-----------------------------------------
			 OPTKING 2.0: for geometry optimizations 
			  - R.A. King,  Bethel University        
			-----------------------------------------

	Internal coordinates to be generated automatically.
	Detected frag 1 with atoms:  1 2 3 4 5 6 7 8 9 10 11 12 13 14 15 16 17 18 19
	---Fragment 1 Bond Connectivity---
	 1 : 4 11
	 2 : 3 7 15
	 3 : 2 4
	 4 : 1 3 5
	 5 : 4
	 6 : 15 16 17 18
	 7 : 2 8 9 10
	 8 : 7
	 9 : 7
	 10 : 7
	 11 : 1 12 13 14
	 12 : 11
	 13 : 11
	 14 : 11
	 15 : 2 6 19
	 16 : 6
	 17 : 6
	 18 : 6
	 19 : 15

	---Fragment 1 Geometry and Gradient---
	 N          -1.7173273971        0.5438696027        1.1947973064
	 N           2.6574706662       -0.4055697508        0.0131926368
	 O           1.0278356466       -1.5398008385       -1.5757243333
	 C          -1.7479567251       -1.0796918479       -0.6101051102
	 O          -3.2039449840       -2.3407315873       -1.8138554129
	 C           1.3994429857        3.7571126103       -1.5980360308
	 C           3.6416654175       -2.0771329930        1.9557215742
	 H           2.0566961020       -2.6841841987        3.1246005612
	 H           4.5022250327       -3.6934124427        1.0302054808
	 H           5.0365952777       -1.0729868199        3.0792385903
	 C          -4.1554309644        1.3539011055        2.1388791228
	 H          -5.6887559777        0.2538054227        1.2993886378
	 H          -4.2353122575        1.1498714078        4.1886516453
	 H          -4.4826874802        3.3484275740        1.7041517727
	 C           2.3272912814        1.9882108942        0.3611799713
	 H           0.5021254792        2.7553155106       -3.1443527192
	 H           0.0678374830        5.0734262246       -0.7511414330
	 H           3.0144406093        4.8390338146       -2.3010073241
	 H           3.2569433498        2.7545038974        2.0188609327
	             0.0003377678       -0.0050273678       -0.0054828172
	            -0.0030084969        0.0051256662        0.0005556099
	             0.0016986448        0.0012656593        0.0019813825
	            -0.0094091777       -0.0022207761       -0.0015963486
	             0.0092818444        0.0078638101        0.0074055946
	            -0.0005373534       -0.0005186024        0.0002648452
	             0.0003797116        0.0000463377        0.0003596581
	             0.0019950766        0.0008866136       -0.0016595794
	            -0.0012442136        0.0020812637        0.0013793363
	            -0.0019673582       -0.0013071139       -0.0015303190
	            -0.0013529747        0.0003723637        0.0004720490
	             0.0022939447        0.0014825333        0.0010640098
	            -0.0001725979        0.0004794465       -0.0028195272
	             0.0001228756       -0.0028064730        0.0009418348
	             0.0012352730       -0.0046176915       -0.0018733212
	             0.0015777723        0.0011934697        0.0024770857
	             0.0021461678       -0.0018572554       -0.0010993379
	            -0.0019804380       -0.0014564728        0.0013095320
	            -0.0011767773       -0.0011318053       -0.0021505754

	Previous optimization step data not found.  Starting new optimization.

	---Fragment 1 Intrafragment Coordinates---
	 - Coordinate -           - BOHR/RAD -       - ANG/DEG -
	 R(1,4)           =         2.427872	       1.284775
	 R(1,11)          =         2.737114	       1.448418
	 R(2,3)           =         2.543000	       1.345697
	 R(2,7)           =         2.745211	       1.452703
	 R(2,15)          =         2.441372	       1.291919
	 R(3,4)           =         2.974751	       1.574170
	 R(4,5)           =         2.271374	       1.201959
	 R(6,15)          =         2.797936	       1.480604
	 R(6,16)          =         2.049359	       1.084474
	 R(6,17)          =         2.055015	       1.087467
	 R(6,18)          =         2.067109	       1.093867
	 R(7,8)           =         2.060805	       1.090531
	 R(7,9)           =         2.051707	       1.085717
	 R(7,10)          =         2.053395	       1.086610
	 R(11,12)         =         2.065440	       1.092984
	 R(11,13)         =         2.061450	       1.090872
	 R(11,14)         =         2.067419	       1.094031
	 R(15,19)         =         2.049235	       1.084408
	 B(1,4,3)         =         1.910252	     109.449384
	 B(1,4,5)         =         2.454877	     140.654103
	 B(1,11,12)       =         1.942772	     111.312638
	 B(1,11,13)       =         1.926437	     110.376713
	 B(1,11,14)       =         1.932621	     110.731036
	 B(2,3,4)         =         1.903040	     109.036168
	 B(2,7,8)         =         1.880716	     107.757073
	 B(2,7,9)         =         1.886885	     108.110549
	 B(2,7,10)        =         1.910229	     109.448075
	 B(2,15,6)        =         2.171147	     124.397546
	 B(2,15,19)       =         2.004903	     114.872453
	 B(3,2,7)         =         1.982630	     113.596344
	 B(3,2,15)        =         2.026081	     116.085912
	 B(3,4,5)         =         1.917971	     109.891652
	 B(4,1,11)        =         2.029829	     116.300633
	 B(6,15,19)       =         2.071987	     118.716082
	 B(7,2,15)        =         2.146777	     123.001282
	 B(8,7,9)         =         1.924521	     110.266920
	 B(8,7,10)        =         1.934974	     110.865871
	 B(9,7,10)        =         1.925292	     110.311109
	 B(12,11,13)      =         1.899336	     108.823959
	 B(12,11,14)      =         1.886898	     108.111316
	 B(13,11,14)      =         1.873849	     107.363612
	 B(15,6,16)       =         1.943898	     111.377125
	 B(15,6,17)       =         1.908440	     109.345583
	 B(15,6,18)       =         1.885932	     108.055943
	 B(16,6,17)       =         1.918086	     109.898232
	 B(16,6,18)       =         1.919142	     109.958737
	 B(17,6,18)       =         1.887196	     108.128384
	 D(1,4,3,2)       =         0.163733	       9.381217
	 D(2,3,4,5)       =        -2.988874	    -171.249855
	 D(2,15,6,16)     =         0.302162	      17.312587
	 D(2,15,6,17)     =         2.425434	     138.967112
	 D(2,15,6,18)     =        -1.807493	    -103.561731
	 D(3,2,7,8)       =        -1.105048	     -63.314573
	 D(3,2,7,9)       =         0.974877	      55.856343
	 D(3,2,7,10)      =         3.072499	     176.041200
	 D(3,2,15,6)      =        -0.588387	     -33.712093
	 D(3,2,15,19)     =         2.839750	     162.705708
	 D(3,4,1,11)      =         3.044985	     174.464792
	 D(4,1,11,12)     =         0.124235	       7.118121
	 D(4,1,11,13)     =         2.235314	     128.074032
	 D(4,1,11,14)     =        -1.975304	    -113.176583
	 D(4,3,2,7)       =         1.649909	      94.532799
	 D(4,3,2,15)      =        -0.987610	     -56.585885
	 D(5,4,1,11)      =        -0.080271	      -4.599192
	 D(6,15,2,7)      =         3.109170	     178.142326
	 D(7,2,15,19)     =         0.254122	      14.560127
	 D(8,7,2,15)      =         1.492909	      85.537404
	 D(9,7,2,15)      =        -2.710351	    -155.291680
	 D(10,7,2,15)     =        -0.612730	     -35.106823
	 D(16,6,15,19)    =        -3.136149	    -179.688120
	 D(17,6,15,19)    =        -1.012877	     -58.033594
	 D(18,6,15,19)    =         1.037381	      59.437563
	 R(1,6)           =         5.276278	       2.792086
	 R(1,7)           =         6.013939	       3.182440
	 R(1,15)          =         4.374926	       2.315111
	 R(4,6)           =         5.854640	       3.098142
	 R(6,11)          =         7.113128	       3.764105
	 R(11,15)         =         6.751907	       3.572955

	Current energy   :      -456.2083309509

	Generating empirical Hessian (Schlegel '84) for each fragment.
	Taking PRFO optimization step.
	Maximizing along 1 lowest eigenvalue of Hessian.

 RFO min eigenvalues
 -0.000762 -0.000000 -0.000000 -0.000000 -0.000000 -0.000000 -0.000000 -0.000000
 -0.000000 -0.000000 -0.000000 -0.000000 -0.000000 -0.000000 -0.000000 -0.000000
  0.000000  0.000000  0.000000  0.000000  0.000000  0.000000  0.000000  0.000000
  0.000000  0.000000  0.000000  0.004588  0.005156  0.006120  0.007514  0.012405
  0.014979  0.016926  0.019699  0.023151  0.024339  0.032733  0.068604  0.072846
  0.074731  0.076631  0.077057  0.097091  0.098603  0.153852  0.160000  0.160000
  0.160000  0.160000  0.160000  0.160000  0.160000  0.160000  0.160011  0.160666
  0.202031  0.224762  0.244473  0.249984  0.253590  0.316948  0.337118  0.343531
  0.343719  0.344726  0.347142  0.347536  0.351095  0.352096  0.353146  0.354612
  0.354698  0.357780  0.539484  0.660864  0.703177  1.038643

 RFO max eigenvalues
 -0.000000  0.000000
	|RFO target step|  :        0.0677366244
	RFO gradient       :       -0.0112488340
	RFO hessian        :        0.1653053024
	Projected Delta(E) :       -0.0003809790

	Back-transformation to cartesian coordinates...
	Successfully converged to displaced geometry.

	--- Internal Coordinate Step in ANG or DEG, aJ/ANG or AJ/DEG ---
	 ---------------------------------------------------------------------------
	   Coordinate                Previous        Force       Change         New 
	   ----------                --------       ------       ------       ------
	    1 R(1,4)          =      1.284775     0.063574     0.005893     1.290667
	    2 R(1,11)         =      1.448418     0.013738     0.001515     1.449933
	    3 R(2,3)          =      1.345697     0.021539     0.002913     1.348611
	    4 R(2,7)          =      1.452703     0.009516     0.002901     1.455603
	    5 R(2,15)         =      1.291919     0.060411     0.006263     1.298181
	    6 R(3,4)          =      1.574170    -0.002108     0.000841     1.575012
	    7 R(4,5)          =      1.201959     0.117295     0.007250     1.209209
	    8 R(6,15)         =      1.480604     0.025169     0.006164     1.486767
	    9 R(6,16)         =      1.084474     0.025879     0.004678     1.089152
	   10 R(6,17)         =      1.087467     0.024845     0.004536     1.092003
	   11 R(6,18)         =      1.093867     0.022765     0.004245     1.098112
	   12 R(7,8)          =      1.090531     0.022524     0.004154     1.094685
	   13 R(7,9)          =      1.085717     0.023098     0.004192     1.089909
	   14 R(7,10)         =      1.086610     0.023103     0.004206     1.090815
	   15 R(11,12)        =      1.092984     0.023957     0.004454     1.097438
	   16 R(11,13)        =      1.090872     0.023485     0.004336     1.095209
	   17 R(11,14)        =      1.094031     0.024099     0.004496     1.098527
	   18 R(15,19)        =      1.084408     0.022213     0.004014     1.088423
	   19 B(1,4,3)        =    109.449384     0.000013     0.029576   109.478960
	   20 B(1,4,5)        =    140.654103    -0.000024    -0.073374   140.580730
	   21 B(1,11,12)      =    111.312638     0.000038     0.183317   111.495955
	   22 B(1,11,13)      =    110.376713    -0.000035    -0.183728   110.192985
	   23 B(1,11,14)      =    110.731036    -0.000051    -0.240009   110.491027
	   24 B(2,3,4)        =    109.036168    -0.000047     0.064650   109.100818
	   25 B(2,7,8)        =    107.757073     0.000026     0.135431   107.892504
	   26 B(2,7,9)        =    108.110549    -0.000022    -0.127535   107.983014
	   27 B(2,7,10)       =    109.448075     0.000007     0.017392   109.465467
	   28 B(2,15,6)       =    124.397546    -0.000109    -0.109746   124.287800
	   29 B(2,15,19)      =    114.872453     0.000054     0.070496   114.942949
	   30 B(3,2,7)        =    113.596344    -0.000004    -0.121189   113.475155
	   31 B(3,2,15)       =    116.085912    -0.000049    -0.065507   116.020404
	   32 B(3,4,5)        =    109.891652     0.000012     0.035905   109.927557
	   33 B(4,1,11)       =    116.300633     0.000070     0.334501   116.635133
	   34 B(6,15,19)      =    118.716082     0.000062    -0.007731   118.708352
	   35 B(7,2,15)       =    123.001282     0.000045     0.203571   123.204854
	   36 B(8,7,9)        =    110.266920     0.000001     0.024060   110.290980
	   37 B(8,7,10)       =    110.865871    -0.000007     0.012983   110.878853
	   38 B(9,7,10)       =    110.311109    -0.000004    -0.061623   110.249486
	   39 B(12,11,13)     =    108.823959     0.000006     0.054383   108.878342
	   40 B(12,11,14)     =    108.111316     0.000010     0.053332   108.164648
	   41 B(13,11,14)     =    107.363612     0.000034     0.139542   107.503154
	   42 B(15,6,16)      =    111.377125     0.000029     0.111319   111.488444
	   43 B(15,6,17)      =    109.345583    -0.000000    -0.007049   109.338534
	   44 B(15,6,18)      =    108.055943     0.000034     0.183896   108.239838
	   45 B(16,6,17)      =    109.898232    -0.000028    -0.187356   109.710877
	   46 B(16,6,18)      =    109.958737    -0.000030    -0.123888   109.834849
	   47 B(17,6,18)      =    108.128384    -0.000004     0.026691   108.155075
	   48 D(1,4,3,2)      =      9.381217    -0.000005     1.155083    10.536300
	   49 D(2,3,4,5)      =   -171.249855    -0.000003     0.762992  -170.486863
	   50 D(2,15,6,16)    =     17.312587    -0.000002     0.538514    17.851100
	   51 D(2,15,6,17)    =    138.967112    -0.000006     0.370899   139.338011
	   52 D(2,15,6,18)    =   -103.561731    -0.000003     0.503133  -103.058598
	   53 D(3,2,7,8)      =    -63.314573     0.000004     0.107662   -63.206910
	   54 D(3,2,7,9)      =     55.856343     0.000005     0.140908    55.997250
	   55 D(3,2,7,10)     =    176.041200     0.000002     0.000300   176.041500
	   56 D(3,2,15,6)     =    -33.712093     0.000019    -0.021800   -33.733892
	   57 D(3,2,15,19)    =    162.705708     0.000009     0.162431   162.868139
	   58 D(3,4,1,11)     =    174.464792    -0.000000    -0.664333   173.800459
	   59 D(4,1,11,12)    =      7.118121     0.000001     0.530089     7.648211
	   60 D(4,1,11,13)    =    128.074032     0.000003     0.596236   128.670269
	   61 D(4,1,11,14)    =   -113.176583    -0.000000     0.502597  -112.673986
	   62 D(4,3,2,7)      =     94.532799     0.000003    -0.125246    94.407553
	   63 D(4,3,2,15)     =    -56.585885     0.000003    -0.218485   -56.804370
	   64 D(5,4,1,11)     =     -4.599192    -0.000003    -0.085427    -4.684619
	   65 D(6,15,2,7)     =    178.142326     0.000023    -0.011764   178.130562
	   66 D(7,2,15,19)    =     14.560127     0.000013     0.172467    14.732594
	   67 D(8,7,2,15)     =     85.537404    -0.000003     0.110448    85.647853
	   68 D(9,7,2,15)     =   -155.291680    -0.000002     0.143694  -155.147987
	   69 D(10,7,2,15)    =    -35.106823    -0.000006     0.003086   -35.103737
	   70 D(16,6,15,19)   =   -179.688120     0.000007     0.358776  -179.329344
	   71 D(17,6,15,19)   =    -58.033594     0.000004     0.191162   -57.842433
	   72 D(18,6,15,19)   =     59.437563     0.000007     0.323395    59.760958
	   73 R(1,6)          =      2.792086     0.007007    -0.002664     2.789422
	   74 R(1,7)          =      3.182440     0.015204     0.016997     3.199436
	   75 R(1,15)         =      2.315111    -0.006805     0.001793     2.316905
	   76 R(4,6)          =      3.098142     0.009630     0.011760     3.109902
	   77 R(6,11)         =      3.764105     0.000436    -0.007642     3.756463
	   78 R(11,15)        =      3.572955    -0.006276     0.000275     3.573230
	 ---------------------------------------------------------------------------
	Successfully symmetrized geometry.

  ==> Convergence Check <==

  Measures of convergence in internal coordinates in au.
  Criteria marked as inactive (o), active & met (*), and active & unmet ( ).
  --------------------------------------------------------------------------------------------- ~
   Step     Total Energy     Delta E     MAX Force     RMS Force      MAX Disp      RMS Disp    ~
  --------------------------------------------------------------------------------------------- ~
    Convergence Criteria    1.00e-06 *    3.00e-04 *             o    1.20e-03 *             o  ~
  --------------------------------------------------------------------------------------------- ~
      1    -456.20833095   -4.56e+02      1.42e-02      2.37e-03 o    3.21e-02      7.67e-03 o  ~
  ---------------------------------------------------------------------------------------------

	Writing optimization data to binary file.
	Structure for next step:
	Cartesian Geometry (in Angstrom)
	    N    -0.9153094823   0.2735903970   0.6184499570
	    N     1.4229889003  -0.1951998605   0.0229900927
	    O     0.5782608726  -0.8092376216  -0.8303231765
	    C    -0.9007623045  -0.6011379879  -0.3304759560
	    O    -1.6542611839  -1.2958730087  -0.9721679180
	    C     0.7196318938   2.0050417042  -0.8341060240
	    C     1.9516819000  -1.0787864604   1.0518437884
	    H     1.1115788429  -1.4239839042   1.6629091093
	    H     2.4308587751  -1.9231522840   0.5565282052
	    H     2.6771604579  -0.5361254901   1.6593617028
	    C    -2.2184261786   0.6878007305   1.1007588510
	    H    -3.0209078299   0.0804830678   0.6630855096
	    H    -2.2629599223   0.6008583781   2.1916023235
	    H    -2.4066077427   1.7394807517   0.8451840819
	    C     1.2206067775   1.0733125279   0.2105860943
	    H     0.2533638369   1.4668947514  -1.6582681005
	    H    -0.0016533704   2.6934917245  -0.3888490069
	    H     1.5691379790   2.5930125883  -1.2062341416
	    H     1.6994647626   1.4885990869   1.0954001162
			--------------------------
			 OPTKING Finished Execution 
			--------------------------

    Structure for next step:
    Molecular point group: c1
    Full point group: C1

    Geometry (in Angstrom), charge = 0, multiplicity = 1:

    N           -0.924817877041     0.279017922654     0.618466413150
    N            1.413480505546    -0.189772334890     0.023006548907
    O            0.568752477876    -0.803810095919    -0.830306720311
    C           -0.910270699257    -0.595710462217    -0.330459499858
    O           -1.663769578631    -1.290445483028    -0.972151461823
    C            0.710123499069     2.010469229814    -0.834089567791
    C            1.942173505263    -1.073358934714     1.051860244550
    H            1.102070448144    -1.418556378585     1.662925565506
    H            2.421350380344    -1.917724758355     0.556544661314
    H            2.667652063144    -0.530697964465     1.659378159012
    C           -2.227934573274     0.693228256136     1.100775307117
    H           -3.030416224592     0.085910593470     0.663101965775
    H           -2.272468317004     0.606285903724     2.191618779632
    H           -2.416116137392     1.744908277299     0.845200538077
    C            1.211098382815     1.078740053510     0.210602550460
    H            0.243855442161     1.472322277052    -1.658251644368
    H           -0.011161765073     2.698919250145    -0.388832550773
    H            1.559629584313     2.598440113922    -1.206217685452
    H            1.689956367928     1.494026612527     1.095416572395

gradient() will perform analytic gradient computation.

*** tstart() called on localhost.localdomain
*** at Tue Feb 12 13:50:16 2019

   => Loading Basis Set <=

    Name: 6-31+G(D)
    Role: ORBITAL
    Keyword: BASIS
    atoms 1-2                entry N          line   138 file /root/psi4conda/share/psi4/basis/6-31pg_d_.gbs 
    atoms 3, 5               entry O          line   157 file /root/psi4conda/share/psi4/basis/6-31pg_d_.gbs 
    atoms 4, 6-7, 11, 15     entry C          line   119 file /root/psi4conda/share/psi4/basis/6-31pg_d_.gbs 
    atoms 8-10, 12-14, 16-19 entry H          line    46 file /root/psi4conda/share/psi4/basis/6-31pg_d_.gbs 


         ---------------------------------------------------------
                                   SCF
            by Justin Turney, Rob Parrish, Andy Simmonett
                             and Daniel Smith
                              RKS Reference
                       24 Threads,    500 MiB Core
         ---------------------------------------------------------

  ==> Geometry <==

    Molecular point group: c1
    Full point group: C1

    Geometry (in Angstrom), charge = 0, multiplicity = 1:

       Center              X                  Y                   Z               Mass       
    ------------   -----------------  -----------------  -----------------  -----------------
         N           -0.924817877041     0.279017922654     0.618466413150    14.003074004780
         N            1.413480505546    -0.189772334890     0.023006548907    14.003074004780
         O            0.568752477876    -0.803810095919    -0.830306720311    15.994914619560
         C           -0.910270699257    -0.595710462217    -0.330459499858    12.000000000000
         O           -1.663769578631    -1.290445483028    -0.972151461823    15.994914619560
         C            0.710123499069     2.010469229814    -0.834089567791    12.000000000000
         C            1.942173505263    -1.073358934714     1.051860244550    12.000000000000
         H            1.102070448144    -1.418556378585     1.662925565506     1.007825032070
         H            2.421350380344    -1.917724758355     0.556544661314     1.007825032070
         H            2.667652063144    -0.530697964465     1.659378159012     1.007825032070
         C           -2.227934573274     0.693228256136     1.100775307117    12.000000000000
         H           -3.030416224592     0.085910593470     0.663101965775     1.007825032070
         H           -2.272468317004     0.606285903724     2.191618779632     1.007825032070
         H           -2.416116137392     1.744908277299     0.845200538077     1.007825032070
         C            1.211098382815     1.078740053510     0.210602550460    12.000000000000
         H            0.243855442161     1.472322277052    -1.658251644368     1.007825032070
         H           -0.011161765073     2.698919250145    -0.388832550773     1.007825032070
         H            1.559629584313     2.598440113922    -1.206217685452     1.007825032070
         H            1.689956367928     1.494026612527     1.095416572395     1.007825032070

  Running in c1 symmetry.

  Rotational constants: A =      0.07049  B =      0.04751  C =      0.03998 [cm^-1]
  Rotational constants: A =   2113.15448  B =   1424.36272  C =   1198.70387 [MHz]
  Nuclear repulsion =  488.243886243507575

  Charge       = 0
  Multiplicity = 1
  Electrons    = 70
  Nalpha       = 35
  Nbeta        = 35

  ==> Algorithm <==

  SCF Algorithm Type is DF.
  DIIS enabled.
  MOM disabled.
  Fractional occupation disabled.
  Guess Type is READ.
  Energy threshold   = 1.00e-08
  Density threshold  = 1.00e-08
  Integral threshold = 0.00e+00

  ==> Primary Basis <==

  Basis Set: 6-31+G(D)
    Blend: 6-31+G(D)
    Number of shells: 92
    Number of basis function: 191
    Number of Cartesian functions: 191
    Spherical Harmonics?: false
    Max angular momentum: 2

  ==> DFT Potential <==

   => Composite Functional: M06-2X <= 

    Hybrid M06-2X Meta-GGA XC Functional

    Y. Zhao and D. G. Truhlar,  Theor. Chem. Acc., 120, 215, 2008


    Deriv               =              1
    GGA                 =           TRUE
    Meta                =           TRUE

    Exchange Hybrid     =           TRUE
    MP2 Hybrid          =          FALSE

   => Exchange Functionals <=

    1.0000   XC_HYB_MGGA_X_M06_2X

   => Exact (HF) Exchange <=

    0.5400               HF 

   => Correlation Functionals <=

    1.0000   XC_MGGA_C_M06_2X

   => Molecular Quadrature <=

    Radial Scheme       =       TREUTLER
    Pruning Scheme      =           FLAT
    Nuclear Scheme      =       TREUTLER

    BS radius alpha     =              1
    Pruning alpha       =              1
    Radial Points       =             75
    Spherical Points    =            302
    Total Points        =         430350
    Total Blocks        =           3146
    Max Points          =            256
    Max Functions       =            188

   => Loading Basis Set <=

    Name: (6-31+G(D) AUX)
    Role: JKFIT
    Keyword: DF_BASIS_SCF
    atoms 1-2                entry N          line   252 file /root/psi4conda/share/psi4/basis/heavy-aug-cc-pvdz-jkfit.gbs 
    atoms 3, 5               entry O          line   310 file /root/psi4conda/share/psi4/basis/heavy-aug-cc-pvdz-jkfit.gbs 
    atoms 4, 6-7, 11, 15     entry C          line   194 file /root/psi4conda/share/psi4/basis/heavy-aug-cc-pvdz-jkfit.gbs 
    atoms 8-10, 12-14, 16-19 entry H          line   116 file /root/psi4conda/share/psi4/basis/heavy-aug-cc-pvdz-jkfit.gbs 

  Reading orbitals from file 180, no projection.

  ==> Pre-Iterations <==

   -------------------------------------------------------
    Irrep   Nso     Nmo     Nalpha   Nbeta   Ndocc  Nsocc
   -------------------------------------------------------
     A        191     191       0       0       0       0
   -------------------------------------------------------
    Total     191     191      35      35      35       0
   -------------------------------------------------------

  ==> Integral Setup <==

  ==> DiskDFJK: Density-Fitted J/K Matrices <==

    J tasked:                  Yes
    K tasked:                  Yes
    wK tasked:                  No
    OpenMP threads:             24
    Integrals threads:          24
    Memory (MB):               375
    Algorithm:                Core
    Integral Cache:           NONE
    Schwarz Cutoff:          1E-12
    Fitting Condition:       1E-12

   => Auxiliary Basis Set <=

  Basis Set: (6-31+G(D) AUX)
    Blend: HEAVY-AUG-CC-PVDZ-JKFIT
    Number of shells: 342
    Number of basis function: 1159
    Number of Cartesian functions: 1159
    Spherical Harmonics?: false
    Max angular momentum: 3

  Minimum eigenvalue in the overlap matrix is 5.5444571150E-05.
  Using Symmetric Orthogonalization.

  SCF Guess: Orbitals guess was supplied from a previous computation.

  ==> Iterations <==

                           Total Energy        Delta E     RMS |[F,P]|

   @DF-RKS iter   0:  -456.17103448163436   -4.56171e+02   2.66805e-03 
   @DF-RKS iter   1:  -456.20856438892827   -3.75299e-02   3.51073e-04 
   @DF-RKS iter   2:  -456.20865182729540   -8.74384e-05   2.03714e-04 DIIS
   @DF-RKS iter   3:  -456.20870616045221   -5.43332e-05   5.37953e-05 DIIS
   @DF-RKS iter   4:  -456.20870851178535   -2.35133e-06   2.20465e-05 DIIS
   @DF-RKS iter   5:  -456.20870919372470   -6.81939e-07   7.31525e-06 DIIS
   @DF-RKS iter   6:  -456.20870927103255   -7.73078e-08   4.31106e-06 DIIS
   @DF-RKS iter   7:  -456.20870928637788   -1.53453e-08   1.26960e-06 DIIS
   @DF-RKS iter   8:  -456.20870928858540   -2.20751e-09   6.00712e-07 DIIS
   @DF-RKS iter   9:  -456.20870928904685   -4.61455e-10   2.13750e-07 DIIS
   @DF-RKS iter  10:  -456.20870928909972   -5.28644e-11   6.58959e-08 DIIS
   @DF-RKS iter  11:  -456.20870928910875   -9.03810e-12   3.37066e-08 DIIS
   @DF-RKS iter  12:  -456.20870928911091   -2.16005e-12   1.40772e-08 DIIS
   @DF-RKS iter  13:  -456.20870928911114   -2.27374e-13   6.72881e-09 DIIS

  ==> Post-Iterations <==

    Orbital Energies [Eh]
    ---------------------

    Doubly Occupied:                                                      

       1A    -19.695690     2A    -19.594918     3A    -14.902085  
       4A    -14.726716     5A    -10.674420     6A    -10.659271  
       7A    -10.614010     8A    -10.579895     9A    -10.554799  
      10A     -1.265442    11A     -1.140212    12A     -1.024961  
      13A     -0.987088    14A     -0.907998    15A     -0.822890  
      16A     -0.778750    17A     -0.715426    18A     -0.639737  
      19A     -0.625023    20A     -0.598368    21A     -0.559245  
      22A     -0.533401    23A     -0.526570    24A     -0.505798  
      25A     -0.498241    26A     -0.495641    27A     -0.490734  
      28A     -0.476204    29A     -0.453546    30A     -0.448350  
      31A     -0.402476    32A     -0.375744    33A     -0.357376  
      34A     -0.295640    35A     -0.274794  

    Virtual:                                                              

      36A     -0.028467    37A     -0.003894    38A      0.019358  
      39A      0.025527    40A      0.031311    41A      0.047383  
      42A      0.054741    43A      0.060154    44A      0.060818  
      45A      0.067498    46A      0.078536    47A      0.085918  
      48A      0.095979    49A      0.102737    50A      0.109694  
      51A      0.118304    52A      0.121249    53A      0.129004  
      54A      0.135479    55A      0.142932    56A      0.151979  
      57A      0.165788    58A      0.173800    59A      0.192794  
      60A      0.202415    61A      0.208546    62A      0.218464  
      63A      0.222430    64A      0.230396    65A      0.240592  
      66A      0.245807    67A      0.258026    68A      0.265734  
      69A      0.268777    70A      0.275995    71A      0.279273  
      72A      0.293707    73A      0.301185    74A      0.308819  
      75A      0.323263    76A      0.338600    77A      0.348439  
      78A      0.350483    79A      0.360360    80A      0.362496  
      81A      0.370571    82A      0.378080    83A      0.386813  
      84A      0.404213    85A      0.415849    86A      0.449009  
      87A      0.453620    88A      0.472833    89A      0.486789  
      90A      0.512925    91A      0.659026    92A      0.669070  
      93A      0.683712    94A      0.721168    95A      0.725644  
      96A      0.758179    97A      0.767335    98A      0.772503  
      99A      0.796474   100A      0.806363   101A      0.824534  
     102A      0.828080   103A      0.860042   104A      0.883233  
     105A      0.920918   106A      0.950999   107A      0.966476  
     108A      0.985844   109A      0.991583   110A      1.005737  
     111A      1.015210   112A      1.038619   113A      1.043393  
     114A      1.054184   115A      1.077821   116A      1.095057  
     117A      1.120213   118A      1.140127   119A      1.143244  
     120A      1.163894   121A      1.200611   122A      1.239051  
     123A      1.262778   124A      1.286021   125A      1.309983  
     126A      1.351101   127A      1.388890   128A      1.399454  
     129A      1.402302   130A      1.435712   131A      1.441289  
     132A      1.449480   133A      1.493026   134A      1.496863  
     135A      1.513689   136A      1.572439   137A      1.606213  
     138A      1.619897   139A      1.656069   140A      1.688686  
     141A      1.708584   142A      1.743371   143A      1.764363  
     144A      1.808901   145A      1.883329   146A      1.898086  
     147A      1.927565   148A      1.958300   149A      1.973717  
     150A      1.991001   151A      2.029111   152A      2.065371  
     153A      2.081309   154A      2.093130   155A      2.137421  
     156A      2.158466   157A      2.206059   158A      2.217014  
     159A      2.263762   160A      2.278033   161A      2.278987  
     162A      2.293113   163A      2.310078   164A      2.338498  
     165A      2.362381   166A      2.405660   167A      2.421258  
     168A      2.452532   169A      2.490424   170A      2.525319  
     171A      2.585509   172A      2.636935   173A      2.753626  
     174A      2.825545   175A      2.841834   176A      2.872611  
     177A      2.884219   178A      2.936027   179A      3.051249  
     180A      3.157484   181A      3.194300   182A      3.369762  
     183A      4.164806   184A      4.254674   185A      4.294089  
     186A      4.392262   187A      4.448834   188A      4.476723  
     189A      4.505482   190A      4.640675   191A      4.717512  

    Final Occupation by Irrep:
              A 
    DOCC [    35 ]

  Energy converged.

  @DF-RKS Final Energy:  -456.20870928911114

   => Energetics <=

    Nuclear Repulsion Energy =            488.2438862435075748
    One-Electron Energy =               -1587.9619444157299313
    Two-Electron Energy =                 673.2138746703697052
    DFT Exchange-Correlation Energy =     -29.7045257872585751
    Empirical Dispersion Energy =           0.0000000000000000
    VV10 Nonlocal Energy =                  0.0000000000000000
    Total Energy =                       -456.2087092891111979



Properties will be evaluated at   0.000000,   0.000000,   0.000000 [a0]

Properties computed using the SCF density matrix

  Nuclear Dipole Moment: [e a0]
     X:     1.8255      Y:     6.3962      Z:     5.0714

  Electronic Dipole Moment: [e a0]
     X:     0.3161      Y:    -4.8194      Z:    -3.8067

  Dipole Moment: [e a0]
     X:     2.1416      Y:     1.5768      Z:     1.2647     Total:     2.9448

  Dipole Moment: [D]
     X:     5.4433      Y:     4.0077      Z:     3.2146     Total:     7.4850


*** tstop() called on localhost.localdomain at Tue Feb 12 13:50:30 2019
Module time:
	user time   =     295.23 seconds =       4.92 minutes
	system time =       3.50 seconds =       0.06 minutes
	total time  =         14 seconds =       0.23 minutes
Total time:
	user time   =     698.21 seconds =      11.64 minutes
	system time =      12.50 seconds =       0.21 minutes
	total time  =         34 seconds =       0.57 minutes

*** tstart() called on localhost.localdomain
*** at Tue Feb 12 13:50:30 2019


         ------------------------------------------------------------
                                   SCF GRAD                          
                          Rob Parrish, Justin Turney,                
                       Andy Simmonett, and Alex Sokolov              
         ------------------------------------------------------------

  ==> Geometry <==

    Molecular point group: c1
    Full point group: C1

    Geometry (in Angstrom), charge = 0, multiplicity = 1:

       Center              X                  Y                   Z               Mass       
    ------------   -----------------  -----------------  -----------------  -----------------
         N           -0.924817877041     0.279017922654     0.618466413150    14.003074004780
         N            1.413480505546    -0.189772334890     0.023006548907    14.003074004780
         O            0.568752477876    -0.803810095919    -0.830306720311    15.994914619560
         C           -0.910270699257    -0.595710462217    -0.330459499858    12.000000000000
         O           -1.663769578631    -1.290445483028    -0.972151461823    15.994914619560
         C            0.710123499069     2.010469229814    -0.834089567791    12.000000000000
         C            1.942173505263    -1.073358934714     1.051860244550    12.000000000000
         H            1.102070448144    -1.418556378585     1.662925565506     1.007825032070
         H            2.421350380344    -1.917724758355     0.556544661314     1.007825032070
         H            2.667652063144    -0.530697964465     1.659378159012     1.007825032070
         C           -2.227934573274     0.693228256136     1.100775307117    12.000000000000
         H           -3.030416224592     0.085910593470     0.663101965775     1.007825032070
         H           -2.272468317004     0.606285903724     2.191618779632     1.007825032070
         H           -2.416116137392     1.744908277299     0.845200538077     1.007825032070
         C            1.211098382815     1.078740053510     0.210602550460    12.000000000000
         H            0.243855442161     1.472322277052    -1.658251644368     1.007825032070
         H           -0.011161765073     2.698919250145    -0.388832550773     1.007825032070
         H            1.559629584313     2.598440113922    -1.206217685452     1.007825032070
         H            1.689956367928     1.494026612527     1.095416572395     1.007825032070

  Nuclear repulsion =  488.243886243507575

  ==> Basis Set <==

  Basis Set: 6-31+G(D)
    Blend: 6-31+G(D)
    Number of shells: 92
    Number of basis function: 191
    Number of Cartesian functions: 191
    Spherical Harmonics?: false
    Max angular momentum: 2

  ==> DFJKGrad: Density-Fitted SCF Gradients <==

    Gradient:                    1
    J tasked:                  Yes
    K tasked:                  Yes
    wK tasked:                  No
    OpenMP threads:             24
    Integrals threads:          24
    Memory (MB):               375
    Schwarz Cutoff:          0E+00
    Fitting Condition:       1E-12

   => Auxiliary Basis Set <=

  Basis Set: (6-31+G(D) AUX)
    Blend: HEAVY-AUG-CC-PVDZ-JKFIT
    Number of shells: 342
    Number of basis function: 1159
    Number of Cartesian functions: 1159
    Spherical Harmonics?: false
    Max angular momentum: 3

  ==> DFT Potential <==

   => Composite Functional: M06-2X <= 

    Hybrid M06-2X Meta-GGA XC Functional

    Y. Zhao and D. G. Truhlar,  Theor. Chem. Acc., 120, 215, 2008


    Deriv               =              1
    GGA                 =           TRUE
    Meta                =           TRUE

    Exchange Hybrid     =           TRUE
    MP2 Hybrid          =          FALSE

   => Exchange Functionals <=

    1.0000   XC_HYB_MGGA_X_M06_2X

   => Exact (HF) Exchange <=

    0.5400               HF 

   => Correlation Functionals <=

    1.0000   XC_MGGA_C_M06_2X

   => Molecular Quadrature <=

    Radial Scheme       =       TREUTLER
    Pruning Scheme      =           FLAT
    Nuclear Scheme      =       TREUTLER

    BS radius alpha     =              1
    Pruning alpha       =              1
    Radial Points       =             75
    Spherical Points    =            302
    Total Points        =         430350
    Total Blocks        =           3146
    Max Points          =            256
    Max Functions       =            188


  -Total Gradient:
     Atom            X                  Y                   Z
    ------   -----------------  -----------------  -----------------
       1        0.000309500859     0.000356303671    -0.000093833033
       2       -0.001241926036     0.000043583826    -0.000275239281
       3        0.002223221752     0.000205725341    -0.000261828023
       4       -0.002967225495    -0.001622617049     0.000095961797
       5        0.001178351968     0.000907847650     0.000394834071
       6       -0.000419910338    -0.000273200759     0.000299625846
       7       -0.000087422488     0.000213032644    -0.000155873539
       8       -0.000120312192    -0.000048576139     0.000062437362
       9        0.000065427894    -0.000172255370    -0.000002040698
      10        0.000078537478    -0.000037123270     0.000057466659
      11       -0.000342098298     0.000121099851    -0.000008809550
      12       -0.000120857131     0.000004913196     0.000001910585
      13        0.000023543187     0.000030601666     0.000152423591
      14        0.000010182430     0.000081762902     0.000084149518
      15        0.001502164294    -0.000417365395    -0.000108860849
      16       -0.000032201585    -0.000000393615    -0.000206687428
      17       -0.000039841681     0.000182323054    -0.000066815626
      18        0.000031005352     0.000121538067     0.000010486086
      19        0.000158264889     0.000182065788     0.000061913242


*** tstop() called on localhost.localdomain at Tue Feb 12 13:50:34 2019
Module time:
	user time   =      77.48 seconds =       1.29 minutes
	system time =       3.11 seconds =       0.05 minutes
	total time  =          4 seconds =       0.07 minutes
Total time:
	user time   =     775.74 seconds =      12.93 minutes
	system time =      15.61 seconds =       0.26 minutes
	total time  =         38 seconds =       0.63 minutes

			-----------------------------------------
			 OPTKING 2.0: for geometry optimizations 
			  - R.A. King,  Bethel University        
			-----------------------------------------

	Previous internal coordinate definitions found.
	---Fragment 1 Geometry and Gradient---
	 N          -1.7476525104        0.5272674600        1.1687321432
	 N           2.6710910497       -0.3586177405        0.0434760767
	 O           1.0747864206       -1.5189809441       -1.5690523077
	 C          -1.7201623284       -1.1257296281       -0.6244779527
	 O          -3.1440688518       -2.4385885523       -1.8371000225
	 C           1.3419389338        3.7992362429       -1.5762008534
	 C           3.6701760275       -2.0283544289        1.9877277923
	 H           2.0826113261       -2.6806830596        3.1424738982
	 H           4.5756890906       -3.6239745915        1.0517169906
	 H           5.0411318172       -1.0028738121        3.1357702714
	 C          -4.2101861855        1.3100115517        2.0801638643
	 H          -5.7266567331        0.1623474936        1.2530811135
	 H          -4.2943427648        1.1457143163        4.1415592812
	 H          -4.5657978049        3.2973987711        1.5971975443
	 C           2.2886442635        2.0385232697        0.3979811433
	 H           0.4608200017        2.7822858830       -3.1336414673
	 H          -0.0210926791        5.1002182375       -0.7347870325
	 H           2.9472727831        4.9103401880       -2.2794210821
	 H           3.1935547119        2.8233011329        2.0700373233
	             0.0003095009        0.0003563037       -0.0000938330
	            -0.0012419260        0.0000435838       -0.0002752393
	             0.0022232218        0.0002057253       -0.0002618280
	            -0.0029672255       -0.0016226170        0.0000959618
	             0.0011783520        0.0009078476        0.0003948341
	            -0.0004199103       -0.0002732008        0.0002996258
	            -0.0000874225        0.0002130326       -0.0001558735
	            -0.0001203122       -0.0000485761        0.0000624374
	             0.0000654279       -0.0001722554       -0.0000020407
	             0.0000785375       -0.0000371233        0.0000574667
	            -0.0003420983        0.0001210999       -0.0000088095
	            -0.0001208571        0.0000049132        0.0000019106
	             0.0000235432        0.0000306017        0.0001524236
	             0.0000101824        0.0000817629        0.0000841495
	             0.0015021643       -0.0004173654       -0.0001088608
	            -0.0000322016       -0.0000003936       -0.0002066874
	            -0.0000398417        0.0001823231       -0.0000668156
	             0.0000310054        0.0001215381        0.0000104861
	             0.0001582649        0.0001820658        0.0000619132

	---Fragment 1 Intrafragment Coordinates---
	 - Coordinate -           - BOHR/RAD -       - ANG/DEG -
	 R(1,4)           =         2.439007	       1.290667
	 R(1,11)          =         2.739976	       1.449933
	 R(2,3)           =         2.548505	       1.348611
	 R(2,7)           =         2.750692	       1.455603
	 R(2,15)          =         2.453207	       1.298181
	 R(3,4)           =         2.976341	       1.575012
	 R(4,5)           =         2.285073	       1.209209
	 R(6,15)          =         2.809583	       1.486767
	 R(6,16)          =         2.058198	       1.089152
	 R(6,17)          =         2.063586	       1.092003
	 R(6,18)          =         2.075131	       1.098112
	 R(7,8)           =         2.068655	       1.094685
	 R(7,9)           =         2.059630	       1.089909
	 R(7,10)          =         2.061342	       1.090815
	 R(11,12)         =         2.073857	       1.097438
	 R(11,13)         =         2.069644	       1.095209
	 R(11,14)         =         2.075915	       1.098527
	 R(15,19)         =         2.056821	       1.088423
	 B(1,4,3)         =         1.910768	     109.478960
	 B(1,4,5)         =         2.453597	     140.580730
	 B(1,11,12)       =         1.945972	     111.495955
	 B(1,11,13)       =         1.923230	     110.192985
	 B(1,11,14)       =         1.928432	     110.491027
	 B(2,3,4)         =         1.904168	     109.100818
	 B(2,7,8)         =         1.883079	     107.892504
	 B(2,7,9)         =         1.884659	     107.983014
	 B(2,7,10)        =         1.910533	     109.465467
	 B(2,15,6)        =         2.169231	     124.287800
	 B(2,15,19)       =         2.006133	     114.942949
	 B(3,2,7)         =         1.980515	     113.475155
	 B(3,2,15)        =         2.024938	     116.020404
	 B(3,4,5)         =         1.918598	     109.927557
	 B(4,1,11)        =         2.035667	     116.635133
	 B(6,15,19)       =         2.071852	     118.708352
	 B(7,2,15)        =         2.150330	     123.204854
	 B(8,7,9)         =         1.924941	     110.290980
	 B(8,7,10)        =         1.935201	     110.878853
	 B(9,7,10)        =         1.924217	     110.249486
	 B(12,11,13)      =         1.900286	     108.878342
	 B(12,11,14)      =         1.887829	     108.164648
	 B(13,11,14)      =         1.876284	     107.503154
	 B(15,6,16)       =         1.945840	     111.488444
	 B(15,6,17)       =         1.908317	     109.338534
	 B(15,6,18)       =         1.889142	     108.239838
	 B(16,6,17)       =         1.914816	     109.710877
	 B(16,6,18)       =         1.916980	     109.834849
	 B(17,6,18)       =         1.887662	     108.155075
	 D(1,4,3,2)       =         0.183893	      10.536300
	 D(2,3,4,5)       =        -2.975557	    -170.486863
	 D(2,15,6,16)     =         0.311560	      17.851100
	 D(2,15,6,17)     =         2.431907	     139.338011
	 D(2,15,6,18)     =        -1.798712	    -103.058598
	 D(3,2,7,8)       =        -1.103169	     -63.206910
	 D(3,2,7,9)       =         0.977336	      55.997250
	 D(3,2,7,10)      =         3.072504	     176.041500
	 D(3,2,15,6)      =        -0.588767	     -33.733892
	 D(3,2,15,19)     =         2.842585	     162.868139
	 D(3,4,1,11)      =         3.033390	     173.800459
	 D(4,1,11,12)     =         0.133486	       7.648211
	 D(4,1,11,13)     =         2.245720	     128.670269
	 D(4,1,11,14)     =        -1.966532	    -112.673986
	 D(4,3,2,7)       =         1.647723	      94.407553
	 D(4,3,2,15)      =        -0.991423	     -56.804370
	 D(5,4,1,11)      =        -0.081762	      -4.684619
	 D(6,15,2,7)      =         3.108965	     178.130562
	 D(7,2,15,19)     =         0.257132	      14.732594
	 D(8,7,2,15)      =         1.494837	      85.647853
	 D(9,7,2,15)      =        -2.707843	    -155.147987
	 D(10,7,2,15)     =        -0.612676	     -35.103737
	 D(16,6,15,19)    =        -3.129887	    -179.329344
	 D(17,6,15,19)    =        -1.009541	     -57.842433
	 D(18,6,15,19)    =         1.043025	      59.760958
	 R(1,6)           =         5.271244	       2.789422
	 R(1,7)           =         6.046058	       3.199436
	 R(1,15)          =         4.378315	       2.316905
	 R(4,6)           =         5.876864	       3.109902
	 R(6,11)          =         7.098686	       3.756463
	 R(11,15)         =         6.752427	       3.573230

	Current energy   :      -456.2087092891

	Energy change for the previous step:
		Projected    :        -0.0003809790
		Actual       :        -0.0003783382

	Performing Bofill update.
	Previous computed or guess Hessian on step 1.
	Steps to be used in Hessian update: 1
	Taking PRFO optimization step.
	Maximizing along 1 lowest eigenvalue of Hessian.

 RFO min eigenvalues
 -0.000127 -0.000000 -0.000000 -0.000000 -0.000000 -0.000000 -0.000000 -0.000000
 -0.000000 -0.000000 -0.000000 -0.000000 -0.000000 -0.000000  0.000000  0.000000
  0.000000  0.000000  0.000000  0.000000  0.000000  0.000000  0.000000  0.000000
  0.000000  0.000000  0.000000  0.002136  0.004618  0.005813  0.007100  0.012291
  0.014075  0.016891  0.020806  0.024037  0.025344  0.035239  0.069443  0.072731
  0.074686  0.076622  0.076960  0.097087  0.098733  0.154335  0.159419  0.159999
  0.159999  0.159999  0.160000  0.160000  0.160000  0.160000  0.160296  0.161943
  0.201883  0.224955  0.244462  0.249774  0.255626  0.315409  0.338621  0.343580
  0.344043  0.345245  0.347302  0.348507  0.351447  0.352344  0.353576  0.354628
  0.357524  0.359044  0.537308  0.659339  0.705349  1.030692

 RFO max eigenvalues
 -0.000000  0.000000
	|RFO target step|  :        0.2035751159
	RFO gradient       :       -0.0006238598
	RFO hessian        :        0.0029394973
	Projected Delta(E) :       -0.0000634618

	Back-transformation to cartesian coordinates...
	Could not converge backtransformation.
	Using first guess instead.

	--- Internal Coordinate Step in ANG or DEG, aJ/ANG or AJ/DEG ---
	 ---------------------------------------------------------------------------
	   Coordinate                Previous        Force       Change         New 
	   ----------                --------       ------       ------       ------
	    1 R(1,4)          =      1.290667    -0.003767    -0.000392     1.290275
	    2 R(1,11)         =      1.449933    -0.003587    -0.002157     1.447775
	    3 R(2,3)          =      1.348611     0.006471     0.002149     1.350760
	    4 R(2,7)          =      1.455603     0.000790     0.000765     1.456369
	    5 R(2,15)         =      1.298181     0.003523     0.001244     1.299425
	    6 R(3,4)          =      1.575012    -0.012662    -0.007612     1.567400
	    7 R(4,5)          =      1.209209     0.012034     0.004447     1.213656
	    8 R(6,15)         =      1.486767    -0.001670     0.000032     1.486799
	    9 R(6,16)         =      1.089152    -0.001420    -0.000037     1.089115
	   10 R(6,17)         =      1.092003    -0.001110     0.000231     1.092234
	   11 R(6,18)         =      1.098112    -0.000628     0.000516     1.098628
	   12 R(7,8)          =      1.094685    -0.001147     0.000038     1.094723
	   13 R(7,9)          =      1.089909    -0.001217     0.000052     1.089961
	   14 R(7,10)         =      1.090815    -0.000602     0.000137     1.090952
	   15 R(11,12)        =      1.097438    -0.000860     0.005083     1.102520
	   16 R(11,13)        =      1.095209    -0.001177     0.004035     1.099244
	   17 R(11,14)        =      1.098527    -0.000422     0.005262     1.103789
	   18 R(15,19)        =      1.088423    -0.001554    -0.000300     1.088123
	   19 B(1,4,3)        =    109.478960     0.000032     0.301375   109.780335
	   20 B(1,4,5)        =    140.580730    -0.000049    -0.421190   140.159539
	   21 B(1,11,12)      =    111.495955    -0.000011    -0.168101   111.327854
	   22 B(1,11,13)      =    110.192985     0.000004    -0.144357   110.048628
	   23 B(1,11,14)      =    110.491027    -0.000002    -0.142642   110.348384
	   24 B(2,3,4)        =    109.100818     0.000000     0.111421   109.212239
	   25 B(2,7,8)        =    107.892504     0.000005     0.101562   107.994066
	   26 B(2,7,9)        =    107.983014    -0.000008    -0.136670   107.846344
	   27 B(2,7,10)       =    109.465467    -0.000006    -0.101772   109.363694
	   28 B(2,15,6)       =    124.287800     0.000012    -0.108977   124.178824
	   29 B(2,15,19)      =    114.942949    -0.000014    -0.239318   114.703632
	   30 B(3,2,7)        =    113.475155     0.000008     0.020912   113.496067
	   31 B(3,2,15)       =    116.020404    -0.000022    -0.362726   115.657678
	   32 B(3,4,5)        =    109.927557     0.000018     0.121325   110.048882
	   33 B(4,1,11)       =    116.635133    -0.000034    -0.124676   116.510457
	   34 B(6,15,19)      =    118.708352     0.000000    -0.049925   118.658427
	   35 B(7,2,15)       =    123.204854     0.000011     0.090934   123.295788
	   36 B(8,7,9)        =    110.290980     0.000003     0.065592   110.356572
	   37 B(8,7,10)       =    110.878853     0.000001     0.041661   110.920515
	   38 B(9,7,10)       =    110.249486     0.000005     0.024300   110.273787
	   39 B(12,11,13)     =    108.878342     0.000002     0.143512   109.021854
	   40 B(12,11,14)     =    108.164648     0.000002     0.069830   108.234478
	   41 B(13,11,14)     =    107.503154     0.000006     0.263766   107.766920
	   42 B(15,6,16)      =    111.488444    -0.000011    -0.176980   111.311464
	   43 B(15,6,17)      =    109.338534    -0.000014    -0.152780   109.185754
	   44 B(15,6,18)      =    108.239838     0.000000     0.060808   108.300646
	   45 B(16,6,17)      =    109.710877     0.000008    -0.024495   109.686382
	   46 B(16,6,18)      =    109.834849     0.000005     0.077119   109.911968
	   47 B(17,6,18)      =    108.155075     0.000012     0.227976   108.383051
	   48 D(1,4,3,2)      =     10.536300    -0.000002     2.213242    12.749542
	   49 D(2,3,4,5)      =   -170.486863     0.000003     4.202681  -166.284182
	   50 D(2,15,6,16)    =     17.851100     0.000002     2.900002    20.751102
	   51 D(2,15,6,17)    =    139.338011     0.000001     2.651910   141.989922
	   52 D(2,15,6,18)    =   -103.058598     0.000002     2.874230  -100.184369
	   53 D(3,2,7,8)      =    -63.206910     0.000001     1.063856   -62.143055
	   54 D(3,2,7,9)      =     55.997250     0.000002     1.122307    57.119558
	   55 D(3,2,7,10)     =    176.041500     0.000001     1.011840   177.053340
	   56 D(3,2,15,6)     =    -33.733892    -0.000005    -2.157261   -35.891153
	   57 D(3,2,15,19)    =    162.868139    -0.000003    -0.655027   162.213112
	   58 D(3,4,1,11)     =    173.800459     0.000004     0.393540   174.193999
	   59 D(4,1,11,12)    =      7.648211     0.000000     3.853004    11.501215
	   60 D(4,1,11,13)    =    128.670269    -0.000000     3.824859   132.495128
	   61 D(4,1,11,14)    =   -112.673986     0.000002     3.971639  -108.702346
	   62 D(4,3,2,7)      =     94.407553     0.000002    -0.113900    94.293653
	   63 D(4,3,2,15)     =    -56.804370     0.000002     0.300850   -56.503519
	   64 D(5,4,1,11)     =     -4.684619    -0.000005    -2.538329    -7.222948
	   65 D(6,15,2,7)     =    178.130562    -0.000005    -1.655817   176.474745
	   66 D(7,2,15,19)    =     14.732594    -0.000003    -0.153584    14.579010
	   67 D(8,7,2,15)     =     85.647853    -0.000001     0.462365    86.110217
	   68 D(9,7,2,15)     =   -155.147987    -0.000001     0.520816  -154.627170
	   69 D(10,7,2,15)    =    -35.103737    -0.000001     0.410349   -34.693388
	   70 D(16,6,15,19)   =   -179.329344    -0.000000     1.313427  -178.015916
	   71 D(17,6,15,19)   =    -57.842433    -0.000002     1.065336   -56.777097
	   72 D(18,6,15,19)   =     59.760958    -0.000000     1.287655    61.048613
	   73 R(1,6)          =      2.789422     0.000818    -0.007938     2.781485
	   74 R(1,7)          =      3.199436    -0.000319     0.025849     3.225286
	   75 R(1,15)         =      2.316905    -0.002680    -0.016070     2.300835
	   76 R(4,6)          =      3.109902    -0.001950     0.016352     3.126255
	   77 R(6,11)         =      3.756463     0.001429     0.010264     3.766726
	   78 R(11,15)        =      3.573230    -0.002355    -0.007298     3.565933
	 ---------------------------------------------------------------------------
	Successfully symmetrized geometry.

  ==> Convergence Check <==

  Measures of convergence in internal coordinates in au.
  Criteria marked as inactive (o), active & met (*), and active & unmet ( ).
  ---------------------------------------------------------------------------------------------
   Step     Total Energy     Delta E     MAX Force     RMS Force      MAX Disp      RMS Disp   
  ---------------------------------------------------------------------------------------------
    Convergence Criteria    1.00e-06 *    3.00e-04 *             o    1.20e-03 *             o
  ---------------------------------------------------------------------------------------------
      2    -456.20870929   -3.78e-04      1.54e-03      3.18e-04 o    7.34e-02      2.29e-02 o  ~
  ---------------------------------------------------------------------------------------------

	Writing optimization data to binary file.
	Structure for next step:
	Cartesian Geometry (in Angstrom)
	    N    -0.9339333103   0.3036906774   0.6018987397
	    N     1.4102492107  -0.1873661179   0.0195241644
	    O     0.5571878667  -0.7916427514  -0.8358635758
	    C    -0.9116400177  -0.5920835270  -0.3264875765
	    O    -1.6620546818  -1.3416089820  -0.9164460056
	    C     0.7250922827   2.0255045050  -0.8192444476
	    C     1.9455059411  -1.0831564512   1.0354322274
	    H     1.1082993698  -1.4500011151   1.6378682690
	    H     2.4369427096  -1.9114120012   0.5250419616
	    H     2.6625311220  -0.5413765838   1.6539192697
	    C    -2.2393315426   0.6980474812   1.0881823001
	    H    -3.0255752807   0.0160921628   0.7244392963
	    H    -2.2471952993   0.7000376042   2.1873963129
	    H    -2.4833092349   1.7192915322   0.7477624727
	    C     1.1993634333   1.0784019118   0.2241324397
	    H     0.2387997873   1.4995627250  -1.6396566814
	    H     0.0252914255   2.7335659648  -0.3699088839
	    H     1.5915881652   2.5862984718  -1.1956470051
	    H     1.6753755376   1.4803465713   1.1162448979
			--------------------------
			 OPTKING Finished Execution 
			--------------------------

    Structure for next step:
    Molecular point group: c1
    Full point group: C1

    Geometry (in Angstrom), charge = 0, multiplicity = 1:

[...]
	             0.0000434702        0.0001375141        0.0002042121
	            -0.0001062238        0.0001858051       -0.0001870920
	             0.0000046251       -0.0000301311       -0.0000070728
	            -0.0000066034        0.0000065300       -0.0000041978
	             0.0000054620        0.0000187930        0.0000134865
	             0.0000147553        0.0000067122       -0.0000107225
	             0.0000133137       -0.0000050420       -0.0000008679

	---Fragment 1 Intrafragment Coordinates---
	 - Coordinate -           - BOHR/RAD -       - ANG/DEG -
	 R(1,4)           =         2.441452	       1.291961
	 R(1,11)          =         2.741076	       1.450515
	 R(2,3)           =         2.552399	       1.350672
	 R(2,7)           =         2.750987	       1.455760
	 R(2,15)          =         2.450816	       1.296916
	 R(3,4)           =         2.951809	       1.562030
	 R(4,5)           =         2.288617	       1.211084
	 R(6,15)          =         2.808326	       1.486102
	 R(6,16)          =         2.057691	       1.088883
	 R(6,17)          =         2.062965	       1.091674
	 R(6,18)          =         2.074933	       1.098007
	 R(7,8)           =         2.067883	       1.094277
	 R(7,9)           =         2.059262	       1.089714
	 R(7,10)          =         2.061003	       1.090636
	 R(11,12)         =         2.075375	       1.098241
	 R(11,13)         =         2.066219	       1.093396
	 R(11,14)         =         2.078191	       1.099732
	 R(15,19)         =         2.056303	       1.088148
	 B(1,4,3)         =         1.920953	     110.062495
	 B(1,4,5)         =         2.437574	     139.662710
	 B(1,11,12)       =         1.943958	     111.380576
	 B(1,11,13)       =         1.910419	     109.458941
	 B(1,11,14)       =         1.946030	     111.499291
	 B(2,3,4)         =         1.904353	     109.111378
	 B(2,7,8)         =         1.881683	     107.812486
	 B(2,7,9)         =         1.883993	     107.944874
	 B(2,7,10)        =         1.909315	     109.395713
	 B(2,15,6)        =         2.170938	     124.385594
	 B(2,15,19)       =         2.004450	     114.846522
	 B(3,2,7)         =         1.981221	     113.515578
	 B(3,2,15)        =         2.026465	     116.107876
	 B(3,4,5)         =         1.924572	     110.269872
	 B(4,1,11)        =         2.006626	     114.971184
	 B(6,15,19)       =         2.074137	     118.839283
	 B(7,2,15)        =         2.154933	     123.468579
	 B(8,7,9)         =         1.926685	     110.390908
	 B(8,7,10)        =         1.935731	     110.909242
	 B(9,7,10)        =         1.925109	     110.300597
	 B(12,11,13)      =         1.899289	     108.821261
	 B(12,11,14)      =         1.873414	     107.338725
	 B(13,11,14)      =         1.889206	     108.243521
	 B(15,6,16)       =         1.945760	     111.483816
	 B(15,6,17)       =         1.906252	     109.220189
	 B(15,6,18)       =         1.888081	     108.179081
	 B(16,6,17)       =         1.914990	     109.720847
	 B(16,6,18)       =         1.917330	     109.854891
	 B(17,6,18)       =         1.890411	     108.312587
	 D(1,4,3,2)       =         0.165043	       9.456276
	 D(2,3,4,5)       =        -2.987784	    -171.187431
	 D(2,15,6,16)     =         0.314332	      18.009889
	 D(2,15,6,17)     =         2.433450	     139.426388
	 D(2,15,6,18)     =        -1.795629	    -102.881966
	 D(3,2,7,8)       =        -1.101104	     -63.088596
	 D(3,2,7,9)       =         0.980334	      56.168998
	 D(3,2,7,10)      =         3.075478	     176.211936
	 D(3,2,15,6)      =        -0.574300	     -32.904990
	 D(3,2,15,19)     =         2.847498	     163.149630
	 D(3,4,1,11)      =         3.039755	     174.165110
	 D(4,1,11,12)     =         0.756310	      43.333346
	 D(4,1,11,13)     =         2.857383	     163.715992
	 D(4,1,11,14)     =        -1.335998	     -76.547070
	 D(4,3,2,7)       =         1.652931	      94.705959
	 D(4,3,2,15)      =        -1.000103	     -57.301682
	 D(5,4,1,11)      =        -0.085556	      -4.901984
	 D(6,15,2,7)      =         3.109374	     178.154000
	 D(7,2,15,19)     =         0.247987	      14.208620
	 D(8,7,2,15)      =         1.510830	      86.564204
	 D(9,7,2,15)      =        -2.690917	    -154.178202
	 D(10,7,2,15)     =        -0.595773	     -34.135264
	 D(16,6,15,19)    =        -3.117818	    -178.637801
	 D(17,6,15,19)    =        -0.998700	     -57.221303
	 D(18,6,15,19)    =         1.055407	      60.470344
	 R(1,6)           =         5.310364	       2.810124
	 R(1,7)           =         6.036590	       3.194426
	 R(1,15)          =         4.411632	       2.334535
	 R(4,6)           =         5.868607	       3.105533
	 R(6,11)          =         7.164392	       3.791233
	 R(11,15)         =         6.817733	       3.607789

	Current energy   :      -456.2087614116

	Energy change for the previous step:
		Projected    :        -0.0000012534
		Actual       :         0.0000004575

	Performing Bofill update.
	Previous computed or guess Hessian on step 1.
	Steps to be used in Hessian update: 22 21
	Taking PRFO optimization step.
	Maximizing along 1 lowest eigenvalue of Hessian.

 RFO min eigenvalues
 -0.000002 -0.000000 -0.000000 -0.000000 -0.000000 -0.000000 -0.000000 -0.000000
 -0.000000 -0.000000 -0.000000 -0.000000 -0.000000 -0.000000 -0.000000 -0.000000
  0.000000  0.000000  0.000000  0.000000  0.000000  0.000000  0.000000  0.000000
  0.000000  0.000000  0.000000  0.000000  0.001455  0.004678  0.006010  0.008963
  0.014645  0.019458  0.022661  0.027782  0.044512  0.053624  0.072764  0.074646
  0.076621  0.076945  0.083633  0.097137  0.098970  0.154031  0.159719  0.159740
  0.159973  0.160016  0.160118  0.160158  0.160327  0.161267  0.161516  0.164131
  0.205403  0.225177  0.245949  0.249073  0.254791  0.315509  0.331575  0.340688
  0.344166  0.344553  0.347756  0.348664  0.351421  0.352291  0.353560  0.354648
  0.358247  0.361493  0.544157  0.661657  0.706675  1.030657

 RFO max eigenvalues
 -0.007557  0.000000
	|RFO target step|  :        0.0250132397
	RFO gradient       :       -0.0000818997
	RFO hessian        :        0.0032721921
	Projected Delta(E) :       -0.0000010243

	Back-transformation to cartesian coordinates...
	Could not converge backtransformation.
	Using first guess instead.

	--- Internal Coordinate Step in ANG or DEG, aJ/ANG or AJ/DEG ---
	 ---------------------------------------------------------------------------
	   Coordinate                Previous        Force       Change         New 
	   ----------                --------       ------       ------       ------
	    1 R(1,4)          =      1.291961     0.000581    -0.000049     1.291912
	    2 R(1,11)         =      1.450515     0.000046    -0.000065     1.450449
	    3 R(2,3)          =      1.350672     0.000840    -0.000017     1.350654
	    4 R(2,7)          =      1.455760    -0.000050     0.000016     1.455776
	    5 R(2,15)         =      1.296916     0.000201    -0.000029     1.296887
	    6 R(3,4)          =      1.562030    -0.001888     0.000104     1.562134
	    7 R(4,5)          =      1.211084     0.000858    -0.000008     1.211076
	    8 R(6,15)         =      1.486102     0.000013    -0.000017     1.486085
	    9 R(6,16)         =      1.088883    -0.000037    -0.000003     1.088880
	   10 R(6,17)         =      1.091674    -0.000119     0.000001     1.091674
	   11 R(6,18)         =      1.098007    -0.000119    -0.000008     1.097999
	   12 R(7,8)          =      1.094277    -0.000056    -0.000002     1.094274
	   13 R(7,9)          =      1.089714    -0.000062    -0.000001     1.089713
	   14 R(7,10)         =      1.090636    -0.000061    -0.000003     1.090633
	   15 R(11,12)        =      1.098241    -0.002048    -0.000308     1.097933
	   16 R(11,13)        =      1.093396    -0.001878    -0.000245     1.093151
	   17 R(11,14)        =      1.099732    -0.002251    -0.000303     1.099428
	   18 R(15,19)        =      1.088148    -0.000056     0.000002     1.088151
	   19 B(1,4,3)        =    110.062495     0.000002    -0.010895   110.051600
	   20 B(1,4,5)        =    139.662710    -0.000006     0.022391   139.685101
	   21 B(1,11,12)      =    111.380576     0.000002     0.017520   111.398097
	   22 B(1,11,13)      =    109.458941     0.000003     0.020308   109.479249
	   23 B(1,11,14)      =    111.499291     0.000002    -0.008804   111.490487
	   24 B(2,3,4)        =    109.111378     0.000002     0.010735   109.122113
	   25 B(2,7,8)        =    107.812486    -0.000000    -0.002593   107.809893
	   26 B(2,7,9)        =    107.944874     0.000000    -0.000733   107.944142
	   27 B(2,7,10)       =    109.395713    -0.000001     0.000938   109.396651
	   28 B(2,15,6)       =    124.385594    -0.000001    -0.004898   124.380697
	   29 B(2,15,19)      =    114.846522     0.000000     0.009159   114.855680
	   30 B(3,2,7)        =    113.515578     0.000001     0.003186   113.518764
	   31 B(3,2,15)       =    116.107876    -0.000002     0.001797   116.109673
	   32 B(3,4,5)        =    110.269872     0.000004    -0.011315   110.258557
	   33 B(4,1,11)       =    114.971184     0.000002     0.042732   115.013917
	   34 B(6,15,19)      =    118.839283     0.000000     0.002512   118.841795
	   35 B(7,2,15)       =    123.468579     0.000001     0.001942   123.470521
	   36 B(8,7,9)        =    110.390908     0.000000    -0.000552   110.390356
	   37 B(8,7,10)       =    110.909242     0.000000     0.002042   110.911284
	   38 B(9,7,10)       =    110.300597     0.000000     0.000761   110.301357
	   39 B(12,11,13)     =    108.821261    -0.000004    -0.004856   108.816404
	   40 B(12,11,14)     =    107.338725    -0.000001     0.007326   107.346051
	   41 B(13,11,14)     =    108.243521    -0.000002    -0.033329   108.210191
	   42 B(15,6,16)      =    111.483816    -0.000000     0.004135   111.487951
	   43 B(15,6,17)      =    109.220189     0.000001    -0.000335   109.219854
	   44 B(15,6,18)      =    108.179081    -0.000001    -0.001354   108.177728
	   45 B(16,6,17)      =    109.720847    -0.000000     0.000214   109.721061
	   46 B(16,6,18)      =    109.854891     0.000000    -0.001943   109.852948
	   47 B(17,6,18)      =    108.312587     0.000000    -0.000865   108.311722
	   48 D(1,4,3,2)      =      9.456276    -0.000001    -0.005488     9.450788
	   49 D(2,3,4,5)      =   -171.187431    -0.000001     0.006641  -171.180790
	   50 D(2,15,6,16)    =     18.009889    -0.000000    -0.001104    18.008785
	   51 D(2,15,6,17)    =    139.426388    -0.000000     0.001622   139.428010
	   52 D(2,15,6,18)    =   -102.881966    -0.000000    -0.000364  -102.882330
	   53 D(3,2,7,8)      =    -63.088596     0.000000    -0.008330   -63.096925
	   54 D(3,2,7,9)      =     56.168998     0.000000    -0.010816    56.158182
	   55 D(3,2,7,10)     =    176.211936     0.000000    -0.009791   176.202145
	   56 D(3,2,15,6)     =    -32.904990    -0.000000     0.026968   -32.878021
	   57 D(3,2,15,19)    =    163.149630    -0.000000    -0.001235   163.148396
	   58 D(3,4,1,11)     =    174.165110     0.000000    -0.021672   174.143438
	   59 D(4,1,11,12)    =     43.333346    -0.000001    -0.824283    42.509063
	   60 D(4,1,11,13)    =    163.715992    -0.000001    -0.805716   162.910276
	   61 D(4,1,11,14)    =    -76.547070    -0.000001    -0.839525   -77.386595
	   62 D(4,3,2,7)      =     94.705959     0.000000    -0.000321    94.705638
	   63 D(4,3,2,15)     =    -57.301682     0.000000    -0.013774   -57.315456
	   64 D(5,4,1,11)     =     -4.901984    -0.000000    -0.038763    -4.940747
	   65 D(6,15,2,7)     =    178.154000    -0.000000     0.011664   178.165664
	   66 D(7,2,15,19)    =     14.208620    -0.000000    -0.016539    14.192081
	   67 D(8,7,2,15)     =     86.564204    -0.000000     0.006252    86.570456
	   68 D(9,7,2,15)     =   -154.178202    -0.000000     0.003766  -154.174436
	   69 D(10,7,2,15)    =    -34.135264    -0.000000     0.004791   -34.130473
	   70 D(16,6,15,19)   =   -178.637801    -0.000000     0.029053  -178.608748
	   71 D(17,6,15,19)   =    -57.221303    -0.000000     0.031779   -57.189523
	   72 D(18,6,15,19)   =     60.470344    -0.000000     0.029794    60.500137
	   73 R(1,6)          =      2.810124     0.000241     0.000125     2.810248
	   74 R(1,7)          =      3.194426    -0.000285     0.000091     3.194517
	   75 R(1,15)         =      2.334535     0.000019     0.000446     2.334981
	   76 R(4,6)          =      3.105533    -0.000511    -0.000006     3.105527
	   77 R(6,11)         =      3.791233     0.000185    -0.000439     3.790794
	   78 R(11,15)        =      3.607789    -0.000047    -0.000114     3.607675
	 ---------------------------------------------------------------------------
	Successfully symmetrized geometry.

  ==> Convergence Check <==

  Measures of convergence in internal coordinates in au.
  Criteria marked as inactive (o), active & met (*), and active & unmet ( ).
  ---------------------------------------------------------------------------------------------
   Step     Total Energy     Delta E     MAX Force     RMS Force      MAX Disp      RMS Disp   
  ---------------------------------------------------------------------------------------------
    Convergence Criteria    1.00e-06 *    3.00e-04 *             o    1.20e-03 *             o
  ---------------------------------------------------------------------------------------------
     23    -456.20876141    4.57e-07 *    2.73e-04 *    6.22e-05 o    1.47e-02      2.83e-03 o  ~
  ---------------------------------------------------------------------------------------------


  **** Optimization is complete! (in 23 steps) ****

  ==> Optimization Summary <==

  Measures of convergence in internal coordinates in au.
  --------------------------------------------------------------------------------------------------------------- ~
   Step         Total Energy             Delta E       MAX Force       RMS Force        MAX Disp        RMS Disp  ~
  --------------------------------------------------------------------------------------------------------------- ~
      1    -456.208330950888   -456.208330950888      0.01423706      0.00236824      0.03211931      0.00766832  ~
      2    -456.208709289111     -0.000378338223      0.00153685      0.00031813      0.07335062      0.02287303  ~
      3    -456.208580319669      0.000128969442      0.00434106      0.00105427      0.14692029      0.03797727  ~
      4    -456.208157851173      0.000422468496      0.01016996      0.00200906      0.02953853      0.01241234  ~
      5    -456.208705760586     -0.000547909413      0.00142940      0.00033150      0.19869273      0.04266430  ~
      6    -456.207780420844      0.000925339742      0.01345394      0.00257458      0.22452985      0.04765768  ~
      7    -456.207877282417     -0.000096861573      0.01393589      0.00259642      0.21856312      0.04631275  ~
      8    -456.207888932427     -0.000011650010      0.01312412      0.00250318      0.13567496      0.03096413  ~
      9    -456.208325759719     -0.000436827291      0.00851101      0.00168964      0.04348101      0.01361273  ~
     10    -456.208652645638     -0.000326885919      0.00241624      0.00054471      0.07472357      0.01627580  ~
     11    -456.208708675843     -0.000056030205      0.00069211      0.00024299      0.27380064      0.05689206  ~
     12    -456.206968798815      0.001739877029      0.01947958      0.00385716      0.17061095      0.05135388  ~
     13    -456.208452387875     -0.001483589060      0.00762291      0.00146377      0.04601512      0.01526869  ~
     14    -456.208716752369     -0.000264364494      0.00055055      0.00010672      0.27805068      0.05663272  ~
     15    -456.207494480588      0.001222271781      0.01657926      0.00315365      0.07124328      0.02241883  ~
     16    -456.208709543469     -0.001215062881      0.00142025      0.00031612      0.08593778      0.01848289  ~
     17    -456.208737200105     -0.000027656636      0.00073257      0.00024907      0.22084094      0.04546659  ~
     18    -456.208223819613      0.000513380492      0.01099234      0.00210416      0.03185569      0.00968922  ~
     19    -456.208757818590     -0.000533998976      0.00072531      0.00013919      0.07784240      0.01564482  ~
     20    -456.208744704116      0.000013114473      0.00154964      0.00030292      0.04073213      0.00810959  ~
     21    -456.208760023567     -0.000015319450      0.00045555      0.00010052      0.00990671      0.00220720  ~
     22    -456.208761869052     -0.000001845485      0.00026391      0.00004638      0.02948331      0.00584313  ~
     23    -456.208761411594      0.000000457458      0.00027322      0.00006223      0.01465247      0.00283147  ~
  --------------------------------------------------------------------------------------------------------------- ~

	Writing optimization data to binary file.
	Final energy is   -456.2087614115937
	Final (previous) structure:
	Cartesian Geometry (in Angstrom)
	    N    -0.9735227929   0.2004625122   0.5845948874
	    N     1.4156134273  -0.1221059037   0.1113116008
	    O     0.6530985570  -0.7331018070  -0.8211950675
	    C    -0.8497244772  -0.6109939974  -0.4130898443
	    O    -1.5380671187  -1.2956089240  -1.1371141868
	    C     0.6716713122   2.0809457126  -0.7014509817
	    C     1.9240290641  -1.0284636086   1.1307555751
	    H     1.0658412812  -1.4410013603   1.6699845341
	    H     2.4748529958  -1.8234485635   0.6286906050
	    H     2.5818538240  -0.4808967585   1.8067166359
	    C    -2.3410131047   0.4960509561   0.9674669813
	    H    -2.9599082183  -0.4111740813   0.9742149953
	    H    -2.3518588712   0.9379076026   1.9675468055
	    H    -2.8095777142   1.2072720358   0.2717506616
	    C     1.1536863843   1.1286566268   0.3326220261
	    H     0.2680057028   1.5586228224  -1.5674183105
	    H    -0.0967554418   2.7237486917  -0.2677731582
	    H     1.5169560985   2.7116398109  -1.0069650330
	    H     1.5613814348   1.5238890320   1.2608694151
	Saving final (previous) structure.
	Removing binary optimization data file.
			--------------------------
			 OPTKING Finished Execution 
			--------------------------

    Final optimized geometry and variables:
    Molecular point group: c1
    Full point group: C1

    Geometry (in Angstrom), charge = 0, multiplicity = 1:

    N           -0.973522792901     0.200462512179     0.584594887409
    N            1.415613427256    -0.122105903715     0.111311600751
    O            0.653098557007    -0.733101806966    -0.821195067487
    C           -0.849724477232    -0.610993997377    -0.413089844282
    O           -1.538067118707    -1.295608923986    -1.137114186781
    C            0.671671312169     2.080945712604    -0.701450981713
    C            1.924029064067    -1.028463608556     1.130755575096
    H            1.065841281248    -1.441001360253     1.669984534131
    H            2.474852995770    -1.823448563536     0.628690605011
    H            2.581853824029    -0.480896758523     1.806716635894
    C           -2.341013104663     0.496050956150     0.967466981268
    H           -2.959908218256    -0.411174081330     0.974214995267
    H           -2.351858871230     0.937907602591     1.967546805544
    H           -2.809577714244     1.207272035813     0.271750661585
    C            1.153686384299     1.128656626822     0.332622026097
    H            0.268005702844     1.558622822448    -1.567418310453
    H           -0.096755441838     2.723748691745    -0.267773158209
    H            1.516956098531     2.711639810947    -1.006965033045
    H            1.561381434758     1.523889032007     1.260869415077

	Removing binary optimization data file.
	Cleaning optimization helper files.

    Psi4 stopped on: Tuesday, 12 February 2019 01:56PM
    Psi4 wall time for execution: 0:06:43.30

*** Psi4 exiting successfully. Buy a developer a beer!
