[Molden Format]

[FREQ]
       -1414.5774979174
         116.2972276003
         219.5700907297
         328.9068683655
         612.0411415756
         730.8196420385
         956.7578869586
        1062.9884002476
        1143.8430068890
        1192.3007558420
        1217.9901731360
        1287.6302522862
        1324.9044036042
        1389.8543192348
        1485.1184285853
        1502.8457057292
        1511.5916065860
        1574.9179656653
        2134.3222187292
        2987.5188644387
        3064.6347142281
        3068.9148258437
        3151.9424638029
        3179.0396606656

[FR-COORD]
C         -0.3498163490       -1.8943376097        0.4009323762
O         -2.2599350643       -1.4840585556       -1.0988497786
H         -0.7037925168       -2.6221682311        2.3093680341
H          1.4459164718       -2.5721028253       -0.4071176022
H          2.2489382809        4.1958140064       -0.1845438787
C          2.4224569512        2.1456693145       -0.1810497244
H          2.6528161840        1.4523113774       -2.1148486517
H          4.0400564757        1.5964307833        0.9664683321
O          0.1884131467        1.1114813241        0.9232784472
H         -1.4859553701        0.8702223752       -0.4009868592

[FR-NORM-COORD]
vibration 1
          -0.0722495021       -0.0668049874       -0.0511446706
           0.0155967570       -0.0567201618        0.0088233780
           0.0049431783        0.0303510119        0.0170420156
           0.0216277335        0.0495315071        0.0106898714
           0.0373130882        0.0162314120       -0.0166535336
           0.0042492351        0.0158447956       -0.0078355461
          -0.0098551971       -0.0167416405        0.0075741853
          -0.0365887257       -0.0188726115        0.0210247428
          -0.0009356253        0.0477970429        0.0057182957
           0.5595446546        0.6878909660        0.4318031412
vibration 2
          -0.0206057588        0.0208652397        0.0873189587
           0.1539313099        0.0724219507       -0.1292312818
          -0.2555391433        0.0440993002        0.0529641223
           0.0418600313       -0.0467925635        0.2904649488
           0.0105045103       -0.0726931189        0.0067857776
          -0.1241314966       -0.0837605055       -0.1486569886
          -0.5470203906        0.0143145701       -0.2347945555
           0.0559440815       -0.2655244541       -0.4902515652
          -0.0013505819       -0.0064162378        0.1874136423
          -0.0039542636        0.0279208575        0.1817764024
vibration 3
           0.0159724862        0.0314223859        0.0128347752
          -0.0069437292       -0.0575931135        0.0198214919
           0.0551064828        0.0553039822        0.0301422834
           0.0271976534        0.0620798417        0.0086975543
           0.3324461934        0.0145581216        0.5413778902
           0.0296541372       -0.0112157239        0.0316276820
          -0.2037711676        0.4101578705       -0.1463683121
           0.0278667544       -0.5339771235       -0.2148264803
          -0.0417850841        0.0417012604       -0.0618204099
          -0.0087526777        0.0034952860       -0.0818764890
vibration 4
          -0.1366488553       -0.1222210556        0.0968669086
          -0.0094436658        0.0140751286       -0.0348530657
          -0.3499628540        0.1285570723        0.1516495820
          -0.1783047228       -0.4216226627        0.2632519317
          -0.1692003326        0.1761904262        0.2678603419
           0.0228246327        0.1885780946       -0.0051917944
           0.0176636926        0.4622646638       -0.1039341941
           0.1238564376        0.2018202049       -0.1412406020
           0.1251257140       -0.0922076747       -0.0576779659
           0.0752752451       -0.0972913942       -0.0606123196
vibration 5
           0.0347020263        0.3743623093        0.0430519009
          -0.0371517167       -0.0622968227       -0.0346820220
           0.0685436501        0.4421265416        0.0881083885
           0.0165191275        0.1567865659        0.1449628640
          -0.3404119317       -0.0613368504        0.1593797654
          -0.0249333908       -0.0263770165        0.0098482620
           0.0340798387        0.0655382249       -0.0037481459
          -0.0352085536        0.0799623760        0.0589570549
           0.0405400637       -0.2748300846       -0.0500951470
           0.0863888752        0.5239705426        0.2679420880
vibration 6
           0.0977912980       -0.1379037512        0.0634156976
           0.2076634238        0.3252593758        0.1688304355
           0.1096256090       -0.1470537291        0.0812457286
           0.0856983504       -0.2496083548        0.0741729600
          -0.2041802246       -0.1019374277        0.2006595721
          -0.2061399516       -0.1028764456        0.0345968198
           0.0447975767        0.0347675234        0.0113249659
          -0.3552480021       -0.1739728815        0.2042847697
          -0.1201020027       -0.1303516377       -0.2762415234
           0.2197322535        0.4114061785       -0.0340143386
vibration 7
           0.0432917538       -0.0127023292       -0.0672349456
           0.0003764998       -0.0087906921       -0.0047762615
           0.1116276122        0.6477934378        0.1939693816
          -0.1752721715       -0.5590462110       -0.0872586600
           0.1249949470        0.0061924248       -0.0262731138
          -0.0588495121       -0.0113021822        0.0286541338
          -0.0180450779       -0.0899301393        0.0602673012
          -0.1184060953       -0.1018123630        0.0763186073
           0.0296823206        0.0356518528        0.0047822163
          -0.2167109438       -0.0436856577        0.2422570935
vibration 8
          -0.0241687544        0.0175925032       -0.0076383946
          -0.0199805673       -0.0229020162       -0.0048297525
           0.0999187058        0.1243898129        0.0460668595
          -0.0255166002        0.1456302422       -0.1110861081
          -0.3389440155       -0.1190493767        0.0111895735
          -0.1512484600       -0.1095141600        0.1294272480
          -0.3545825092       -0.0262170088        0.0604106361
           0.1729391664        0.1462875440       -0.1965961389
           0.1500162554        0.0808362363       -0.0416110186
           0.4710872368       -0.0960039102       -0.5230550961
vibration 9
          -0.0008510200        0.0011371096       -0.0153533086
          -0.0194941126       -0.0184996061       -0.0011630881
          -0.3111520740       -0.1664307350       -0.1400643824
           0.2178712818        0.2607910839        0.2688826299
           0.0174959078       -0.0362592977        0.2280934749
          -0.1138329402       -0.0513597971       -0.0337307757
           0.3614008155        0.1250223181       -0.0439863652
          -0.3544962296       -0.0904396942        0.2986338534
           0.1273657176        0.0562200736       -0.0223625363
          -0.2775980870       -0.0933419315        0.3462453040





































































































































































