
    -----------------------------------------------------------------------
          Psi4: An Open-Source Ab Initio Electronic Structure Package
                               Psi4 1.2.1 release

                         Git: Rev {HEAD} 406f4de 


    R. M. Parrish, L. A. Burns, D. G. A. Smith, A. C. Simmonett,
    A. E. DePrince III, E. G. Hohenstein, U. Bozkaya, A. Yu. Sokolov,
    R. Di Remigio, R. M. Richard, J. F. Gonthier, A. M. James,
    H. R. McAlexander, A. Kumar, M. Saitow, X. Wang, B. P. Pritchard,
    P. Verma, H. F. Schaefer III, K. Patkowski, R. A. King, E. F. Valeev,
    F. A. Evangelista, J. M. Turney, T. D. Crawford, and C. D. Sherrill,
    J. Chem. Theory Comput. 13(7) pp 3185--3197 (2017).
    (doi: 10.1021/acs.jctc.7b00174)


                         Additional Contributions by
    P. Kraus, H. Kruse, M. H. Lechner, M. C. Schieber, and R. A. Shaw

    -----------------------------------------------------------------------


    Psi4 started on: Thursday, 17 January 2019 10:51AM

    Process ID: 8670
    Host:       localhost.localdomain
    PSIDATADIR: /root/psi4conda/share/psi4
    Memory:     500.0 MiB
    Threads:    1
    
  ==> Input File <==

--------------------------------------------------------------------------
molecule{
0 1
    C           -0.185114839068    -1.002440288444     0.212164275656
    O           -1.195906128921    -0.785329963826    -0.581486258520
    H           -0.372430959452    -1.387591664993     1.222064929873
    H            0.765146042402    -1.361098193307    -0.215437356320
    H            1.190086881801     2.220329143677    -0.097656414572
    C            1.281909007356     1.135439298381    -0.095807387788
    H            1.403809863138     0.768530080675    -1.119129706079
    H            2.137905808347     0.844794785632     0.511433014177
    O            0.099703943024     0.588170584466     0.488577911428
    H           -0.786333714816     0.460501847375    -0.212193106817
 
}

set{
   basis 6-311++G(d,p)
   freeze_core True
   normal_modes_write True
}


set_num_threads(32)
frequencies('m06-2x')
--------------------------------------------------------------------------
  Threads set to 32 by Python driver.
gradient() will perform analytic gradient computation.

*** tstart() called on localhost.localdomain
*** at Thu Jan 17 10:51:18 2019

   => Loading Basis Set <=

    Name: 6-311++G(D,P)
    Role: ORBITAL
    Keyword: BASIS
    atoms 1, 6         entry C          line   119 file /root/psi4conda/share/psi4/basis/6-311ppg_d_p_.gbs 
    atoms 2, 9         entry O          line   161 file /root/psi4conda/share/psi4/basis/6-311ppg_d_p_.gbs 
    atoms 3-5, 7-8, 10 entry H          line    42 file /root/psi4conda/share/psi4/basis/6-311ppg_d_p_.gbs 


         ---------------------------------------------------------
                                   SCF
            by Justin Turney, Rob Parrish, Andy Simmonett
                             and Daniel Smith
                              RKS Reference
                       32 Threads,    500 MiB Core
         ---------------------------------------------------------

  ==> Geometry <==

    Molecular point group: c1
    Full point group: C1

    Geometry (in Angstrom), charge = 0, multiplicity = 1:

       Center              X                  Y                   Z               Mass       
    ------------   -----------------  -----------------  -----------------  -----------------
         C           -0.185114839068    -1.002440288444     0.212164275656    12.000000000000
         O           -1.195906128921    -0.785329963826    -0.581486258520    15.994914619560
         H           -0.372430959452    -1.387591664993     1.222064929873     1.007825032070
         H            0.765146042402    -1.361098193307    -0.215437356320     1.007825032070
         H            1.190086881801     2.220329143677    -0.097656414572     1.007825032070
         C            1.281909007356     1.135439298381    -0.095807387788    12.000000000000
         H            1.403809863138     0.768530080675    -1.119129706079     1.007825032070
         H            2.137905808347     0.844794785632     0.511433014177     1.007825032070
         O            0.099703943024     0.588170584466     0.488577911428    15.994914619560
         H           -0.786333714816     0.460501847375    -0.212193106817     1.007825032070

  Running in c1 symmetry.

  Rotational constants: A =      0.69590  B =      0.16138  C =      0.15483 [cm^-1]
  Rotational constants: A =  20862.46508  B =   4838.01939  C =   4641.83519 [MHz]
  Nuclear repulsion =  134.680779624990436

  Charge       = 0
  Multiplicity = 1
  Electrons    = 34
  Nalpha       = 17
  Nbeta        = 17

  ==> Algorithm <==

  SCF Algorithm Type is DF.
  DIIS enabled.
  MOM disabled.
  Fractional occupation disabled.
  Guess Type is SAD.
  Energy threshold   = 1.00e-08
  Density threshold  = 1.00e-08
  Integral threshold = 0.00e+00

  ==> Primary Basis <==

  Basis Set: 6-311++G(D,P)
    Blend: 6-311++G(D,P)
    Number of shells: 70
    Number of basis function: 130
    Number of Cartesian functions: 134
    Spherical Harmonics?: true
    Max angular momentum: 2

  ==> DFT Potential <==

   => Composite Functional: M06-2X <= 

    Hybrid M06-2X Meta-GGA XC Functional

    Y. Zhao and D. G. Truhlar,  Theor. Chem. Acc., 120, 215, 2008


    Deriv               =              1
    GGA                 =           TRUE
    Meta                =           TRUE

    Exchange Hybrid     =           TRUE
    MP2 Hybrid          =          FALSE

   => Exchange Functionals <=

    1.0000   XC_HYB_MGGA_X_M06_2X

   => Exact (HF) Exchange <=

    0.5400               HF 

   => Correlation Functionals <=

    1.0000   XC_MGGA_C_M06_2X

   => Molecular Quadrature <=

    Radial Scheme       =       TREUTLER
    Pruning Scheme      =           FLAT
    Nuclear Scheme      =       TREUTLER

    BS radius alpha     =              1
    Pruning alpha       =              1
    Radial Points       =             75
    Spherical Points    =            302
    Total Points        =         226500
    Total Blocks        =           1731
    Max Points          =            256
    Max Functions       =            130

   => Loading Basis Set <=

    Name: (6-311++G(D,P) AUX)
    Role: JKFIT
    Keyword: DF_BASIS_SCF
    atoms 1, 6         entry C          line   162 file /root/psi4conda/share/psi4/basis/aug-cc-pvtz-jkfit.gbs 
    atoms 2, 9         entry O          line   286 file /root/psi4conda/share/psi4/basis/aug-cc-pvtz-jkfit.gbs 
    atoms 3-5, 7-8, 10 entry H          line    70 file /root/psi4conda/share/psi4/basis/aug-cc-pvtz-jkfit.gbs 

  ==> Pre-Iterations <==

   -------------------------------------------------------
    Irrep   Nso     Nmo     Nalpha   Nbeta   Ndocc  Nsocc
   -------------------------------------------------------
     A        130     130       0       0       0       0
   -------------------------------------------------------
    Total     130     130      17      17      17       0
   -------------------------------------------------------

  ==> Integral Setup <==

  DFHelper Memory: AOs need 0.117 [GiB]; user supplied 0.366 [GiB]. Using in-core AOs.

  ==> MemDFJK: Density-Fitted J/K Matrices <==

    J tasked:                   Yes
    K tasked:                   Yes
    wK tasked:                   No
    OpenMP threads:              32
    Memory (MB):                375
    Algorithm:                 Core
    Schwarz Cutoff:           1E-12
    Mask sparsity (%):       1.0414
    Fitting Condition:        1E-12

   => Auxiliary Basis Set <=

  Basis Set: (6-311++G(D,P) AUX)
    Blend: AUG-CC-PVTZ-JKFIT
    Number of shells: 204
    Number of basis function: 692
    Number of Cartesian functions: 854
    Spherical Harmonics?: true
    Max angular momentum: 4

  Minimum eigenvalue in the overlap matrix is 5.4426221872E-04.
  Using Symmetric Orthogonalization.

  SCF Guess: Superposition of Atomic Densities via on-the-fly atomic UHF.

  ==> Iterations <==

                           Total Energy        Delta E     RMS |[F,P]|

   @DF-RKS iter   0:  -231.06437833230839   -2.31064e+02   1.37462e-01 
   @DF-RKS iter   1:  -230.06703518433045    9.97343e-01   1.31527e-02 
   @DF-RKS iter   2:  -230.05564780383583    1.13874e-02   1.27588e-02 DIIS
   @DF-RKS iter   3:  -230.14408868460649   -8.84409e-02   2.12961e-03 DIIS
   @DF-RKS iter   4:  -230.14543778031231   -1.34910e-03   1.35856e-03 DIIS
   @DF-RKS iter   5:  -230.14587906525676   -4.41285e-04   3.42430e-04 DIIS
   @DF-RKS iter   6:  -230.14592445201629   -4.53868e-05   1.19309e-04 DIIS
   @DF-RKS iter   7:  -230.14592973461035   -5.28259e-06   1.77868e-05 DIIS
   @DF-RKS iter   8:  -230.14593001667151   -2.82061e-07   5.61618e-06 DIIS
   @DF-RKS iter   9:  -230.14593004459218   -2.79207e-08   1.76747e-06 DIIS
   @DF-RKS iter  10:  -230.14593004812457   -3.53239e-09   5.96498e-07 DIIS
   @DF-RKS iter  11:  -230.14593004839458   -2.70006e-10   8.32505e-08 DIIS
   @DF-RKS iter  12:  -230.14593004841117   -1.65983e-11   2.08087e-08 DIIS
   @DF-RKS iter  13:  -230.14593004841163   -4.54747e-13   6.22902e-09 DIIS

  ==> Post-Iterations <==

    Orbital Energies [Eh]
    ---------------------

    Doubly Occupied:                                                      

       1A    -19.687434     2A    -19.574571     3A    -10.650707  
       4A    -10.613290     5A     -1.224623     6A     -1.100705  
       7A     -0.821400     8A     -0.741042     9A     -0.635312  
      10A     -0.587613    11A     -0.562532    12A     -0.515872  
      13A     -0.488272    14A     -0.452191    15A     -0.444535  
      16A     -0.345921    17A     -0.317949  

    Virtual:                                                              

      18A     -0.008201    19A      0.012712    20A      0.019588  
      21A      0.023086    22A      0.042546    23A      0.048650  
      24A      0.059959    25A      0.071600    26A      0.079975  
      27A      0.106624    28A      0.116132    29A      0.120591  
      30A      0.123730    31A      0.135639    32A      0.145784  
      33A      0.186539    34A      0.197138    35A      0.200787  
      36A      0.211705    37A      0.220977    38A      0.235482  
      39A      0.252325    40A      0.270321    41A      0.276957  
      42A      0.311029    43A      0.313257    44A      0.327859  
      45A      0.336786    46A      0.342202    47A      0.399128  
      48A      0.429169    49A      0.465221    50A      0.478426  
      51A      0.530083    52A      0.534799    53A      0.562652  
      54A      0.606140    55A      0.654668    56A      0.663465  
      57A      0.681527    58A      0.697099    59A      0.712814  
      60A      0.721695    61A      0.908395    62A      0.973535  
      63A      1.011754    64A      1.037561    65A      1.075540  
      66A      1.131794    67A      1.206059    68A      1.208183  
      69A      1.244294    70A      1.248386    71A      1.298271  
      72A      1.354499    73A      1.463159    74A      1.470332  
      75A      1.530455    76A      1.547165    77A      1.566422  
      78A      1.599557    79A      1.615441    80A      1.658090  
      81A      1.674469    82A      1.714947    83A      1.724896  
      84A      1.751430    85A      1.779716    86A      1.839703  
      87A      1.912911    88A      1.985136    89A      2.029823  
      90A      2.079170    91A      2.148723    92A      2.181920  
      93A      2.328035    94A      2.431021    95A      2.453594  
      96A      2.499313    97A      2.523577    98A      2.533504  
      99A      2.543323   100A      2.585012   101A      2.612868  
     102A      2.715939   103A      2.784020   104A      2.850975  
     105A      2.927820   106A      2.934699   107A      3.000378  
     108A      3.123987   109A      3.178649   110A      3.223959  
     111A      3.308770   112A      3.489668   113A      3.563401  
     114A      3.731232   115A      3.772074   116A      3.807656  
     117A      3.841465   118A      3.946182   119A      4.056103  
     120A      4.134250   121A      5.199688   122A      5.242540  
     123A      5.288760   124A      5.292829   125A      5.612843  
     126A      5.767453   127A     23.912269   128A     23.964931  
     129A     49.972421   130A     50.116327  

    Final Occupation by Irrep:
              A 
    DOCC [    17 ]

  Energy converged.

  @DF-RKS Final Energy:  -230.14593004841163

   => Energetics <=

    Nuclear Repulsion Energy =            134.6807796249904357
    One-Electron Energy =                -580.1290118930592143
    Two-Electron Energy =                 229.8527955552462174
    DFT Exchange-Correlation Energy =     -14.5504933355890884
    Empirical Dispersion Energy =           0.0000000000000000
    VV10 Nonlocal Energy =                  0.0000000000000000
    Total Energy =                       -230.1459300484116284



Properties will be evaluated at   0.000000,   0.000000,   0.000000 [a0]

Properties computed using the SCF density matrix

  Nuclear Dipole Moment: [e a0]
     X:     4.0616      Y:     1.4479      Z:     0.0831

  Electronic Dipole Moment: [e a0]
     X:    -2.6178      Y:    -0.8569      Z:     0.2628

  Dipole Moment: [e a0]
     X:     1.4438      Y:     0.5910      Z:     0.3458     Total:     1.5980

  Dipole Moment: [D]
     X:     3.6698      Y:     1.5021      Z:     0.8790     Total:     4.0616


*** tstop() called on localhost.localdomain at Thu Jan 17 10:51:23 2019
Module time:
	user time   =     124.84 seconds =       2.08 minutes
	system time =       4.26 seconds =       0.07 minutes
	total time  =          5 seconds =       0.08 minutes
Total time:
	user time   =     124.84 seconds =       2.08 minutes
	system time =       4.26 seconds =       0.07 minutes
	total time  =          5 seconds =       0.08 minutes

*** tstart() called on localhost.localdomain
*** at Thu Jan 17 10:51:23 2019


         ------------------------------------------------------------
                                   SCF GRAD                          
                          Rob Parrish, Justin Turney,                
                       Andy Simmonett, and Alex Sokolov              
         ------------------------------------------------------------

  ==> Geometry <==

    Molecular point group: c1
    Full point group: C1

    Geometry (in Angstrom), charge = 0, multiplicity = 1:

       Center              X                  Y                   Z               Mass       
    ------------   -----------------  -----------------  -----------------  -----------------
         C           -0.185114839068    -1.002440288444     0.212164275656    12.000000000000
         O           -1.195906128921    -0.785329963826    -0.581486258520    15.994914619560
         H           -0.372430959452    -1.387591664993     1.222064929873     1.007825032070
         H            0.765146042402    -1.361098193307    -0.215437356320     1.007825032070
         H            1.190086881801     2.220329143677    -0.097656414572     1.007825032070
         C            1.281909007356     1.135439298381    -0.095807387788    12.000000000000
         H            1.403809863138     0.768530080675    -1.119129706079     1.007825032070
         H            2.137905808347     0.844794785632     0.511433014177     1.007825032070
         O            0.099703943024     0.588170584466     0.488577911428    15.994914619560
         H           -0.786333714816     0.460501847375    -0.212193106817     1.007825032070

  Nuclear repulsion =  134.680779624990436

  ==> Basis Set <==

  Basis Set: 6-311++G(D,P)
    Blend: 6-311++G(D,P)
    Number of shells: 70
    Number of basis function: 130
    Number of Cartesian functions: 134
    Spherical Harmonics?: true
    Max angular momentum: 2

  ==> DFJKGrad: Density-Fitted SCF Gradients <==

    Gradient:                    1
    J tasked:                  Yes
    K tasked:                  Yes
    wK tasked:                  No
    OpenMP threads:             32
    Integrals threads:          32
    Memory (MB):               375
    Schwarz Cutoff:          0E+00
    Fitting Condition:       1E-12

   => Auxiliary Basis Set <=

  Basis Set: (6-311++G(D,P) AUX)
    Blend: AUG-CC-PVTZ-JKFIT
    Number of shells: 204
    Number of basis function: 692
    Number of Cartesian functions: 854
    Spherical Harmonics?: true
    Max angular momentum: 4

  ==> DFT Potential <==

   => Composite Functional: M06-2X <= 

    Hybrid M06-2X Meta-GGA XC Functional

    Y. Zhao and D. G. Truhlar,  Theor. Chem. Acc., 120, 215, 2008


    Deriv               =              1
    GGA                 =           TRUE
    Meta                =           TRUE

    Exchange Hybrid     =           TRUE
    MP2 Hybrid          =          FALSE

   => Exchange Functionals <=

    1.0000   XC_HYB_MGGA_X_M06_2X

   => Exact (HF) Exchange <=

    0.5400               HF 

   => Correlation Functionals <=

    1.0000   XC_MGGA_C_M06_2X

   => Molecular Quadrature <=

    Radial Scheme       =       TREUTLER
    Pruning Scheme      =           FLAT
    Nuclear Scheme      =       TREUTLER

    BS radius alpha     =              1
    Pruning alpha       =              1
    Radial Points       =             75
    Spherical Points    =            302
    Total Points        =         226500
    Total Blocks        =           1731
    Max Points          =            256
    Max Functions       =            130


  -Total Gradient:
     Atom            X                  Y                   Z
    ------   -----------------  -----------------  -----------------
       1       -0.000242745615    -0.000235191238    -0.000195477059
       2        0.000031365343    -0.000005055661     0.000047057731
       3        0.000051494990     0.000080333856     0.000116445316
       4        0.000097423616     0.000098346411     0.000074889976
       5        0.000023444150     0.000035611847     0.000020455994
       6       -0.000097528655    -0.000026651215     0.000051741369
       7       -0.000015330401     0.000037526541     0.000004792879
       8        0.000013326183     0.000018804265    -0.000010526617
       9        0.000088134166     0.000232556795     0.000010086633
      10        0.000048529165    -0.000208246983     0.000147410952


*** tstop() called on localhost.localdomain at Thu Jan 17 10:51:27 2019
Module time:
	user time   =      62.96 seconds =       1.05 minutes
	system time =       3.93 seconds =       0.07 minutes
	total time  =          4 seconds =       0.07 minutes
Total time:
	user time   =     187.93 seconds =       3.13 minutes
	system time =       8.21 seconds =       0.14 minutes
	total time  =          9 seconds =       0.15 minutes

  Based on options and gradient (rms=2.42E-04), recommend projecting translations and projecting rotations.
hessian() will perform frequency computation by finite difference of analytic gradients.

-------------------------------------------------------------

  Using finite-differences of gradients to determine vibrational frequencies and 
  normal modes.  Resulting frequencies are only valid at stationary points.
	Generating geometries for use with 3-point formula.
	Displacement size will be 5.00e-03.
	Number of atoms is 10.
	Number of irreps is 1.
	Number of SALCS is 24.
	Translations projected? 1. Rotations projected? 1.
	Index of salcs per irrep:
	 1 :  0  1  2  3  4  5  6  7  8  9  10  11  12  13  14  15  16  17  18  19  20  21  22  23 
	Number of SALC's per irrep:
		 Irrep 1: 24
	Number of geometries (including reference) is 49.
	Number of displacements per irrep:
	  Irrep 1: 48

  //>>>>>>>>>>>>>>>>>>>>>>>>>>>>>>>>>>>//
  //    Loading displacement 1 of 49   //
  //<<<<<<<<<<<<<<<<<<<<<<<<<<<<<<<<<<<//
gradient() will perform analytic gradient computation.

*** tstart() called on localhost.localdomain
*** at Thu Jan 17 10:51:27 2019

   => Loading Basis Set <=

    Name: 6-311++G(D,P)
    Role: ORBITAL
    Keyword: BASIS
    atoms 1, 6         entry C          line   119 file /root/psi4conda/share/psi4/basis/6-311ppg_d_p_.gbs 
    atoms 2, 9         entry O          line   161 file /root/psi4conda/share/psi4/basis/6-311ppg_d_p_.gbs 
    atoms 3-5, 7-8, 10 entry H          line    42 file /root/psi4conda/share/psi4/basis/6-311ppg_d_p_.gbs 


         ---------------------------------------------------------
                                   SCF
            by Justin Turney, Rob Parrish, Andy Simmonett
                             and Daniel Smith
                              RKS Reference
                       32 Threads,    500 MiB Core
         ---------------------------------------------------------

  ==> Geometry <==

    Molecular point group: c1
    Full point group: C1

    Geometry (in Angstrom), charge = 0, multiplicity = 1:

       Center              X                  Y                   Z               Mass       
    ------------   -----------------  -----------------  -----------------  -----------------
         C           -0.185735477696    -1.002477227348     0.212109736184    12.000000000000
         O           -1.195684528061    -0.785429625138    -0.581433464264    15.994914619560
         H           -0.371974384973    -1.387722594895     1.221999997050     1.007825032070
         H            0.765468828276    -1.360992606048    -0.215603804585     1.007825032070
         H            1.189997940117     2.220476468129    -0.097606519416     1.007825032070
         C            1.281948197728     1.135597321720    -0.095843074405    12.000000000000
         H            1.403799314634     0.768775334722    -1.119202594037     1.007825032070
         H            2.138034476488     0.845010544104     0.511298829035     1.007825032070
         O            0.099860802835     0.588147561820     0.488610721747    15.994914619560
         H           -0.786225493840     0.460424204874    -0.212088847927     1.007825032070

  Running in c1 symmetry.

  Rotational constants: A =      0.69614  B =      0.16136  C =      0.15483 [cm^-1]
  Rotational constants: A =  20869.84823  B =   4837.49329  C =   4641.59748 [MHz]
  Nuclear repulsion =  134.686787418079518

  Charge       = 0
  Multiplicity = 1
  Electrons    = 34
  Nalpha       = 17
  Nbeta        = 17

  ==> Algorithm <==

  SCF Algorithm Type is DF.
  DIIS enabled.
  MOM disabled.
  Fractional occupation disabled.
  Guess Type is SAD.
  Energy threshold   = 1.00e-08
  Density threshold  = 1.00e-08
  Integral threshold = 0.00e+00

  ==> Primary Basis <==

  Basis Set: 6-311++G(D,P)
    Blend: 6-311++G(D,P)
    Number of shells: 70
    Number of basis function: 130
    Number of Cartesian functions: 134
    Spherical Harmonics?: true
    Max angular momentum: 2

  ==> DFT Potential <==

   => Composite Functional: M06-2X <= 

    Hybrid M06-2X Meta-GGA XC Functional

    Y. Zhao and D. G. Truhlar,  Theor. Chem. Acc., 120, 215, 2008


    Deriv               =              1
    GGA                 =           TRUE
    Meta                =           TRUE

    Exchange Hybrid     =           TRUE
    MP2 Hybrid          =          FALSE

   => Exchange Functionals <=

    1.0000   XC_HYB_MGGA_X_M06_2X

   => Exact (HF) Exchange <=

    0.5400               HF 

   => Correlation Functionals <=

    1.0000   XC_MGGA_C_M06_2X

   => Molecular Quadrature <=

    Radial Scheme       =       TREUTLER
    Pruning Scheme      =           FLAT
    Nuclear Scheme      =       TREUTLER

    BS radius alpha     =              1
    Pruning alpha       =              1
    Radial Points       =             75
    Spherical Points    =            302
    Total Points        =         226500
    Total Blocks        =           1731
    Max Points          =            256
    Max Functions       =            130

   => Loading Basis Set <=

    Name: (6-311++G(D,P) AUX)
    Role: JKFIT
    Keyword: DF_BASIS_SCF
    atoms 1, 6         entry C          line   162 file /root/psi4conda/share/psi4/basis/aug-cc-pvtz-jkfit.gbs 
    atoms 2, 9         entry O          line   286 file /root/psi4conda/share/psi4/basis/aug-cc-pvtz-jkfit.gbs 
    atoms 3-5, 7-8, 10 entry H          line    70 file /root/psi4conda/share/psi4/basis/aug-cc-pvtz-jkfit.gbs 

  ==> Pre-Iterations <==

   -------------------------------------------------------
    Irrep   Nso     Nmo     Nalpha   Nbeta   Ndocc  Nsocc
   -------------------------------------------------------
     A        130     130       0       0       0       0
   -------------------------------------------------------
    Total     130     130      17      17      17       0
   -------------------------------------------------------

  ==> Integral Setup <==

  DFHelper Memory: AOs need 0.117 [GiB]; user supplied 0.366 [GiB]. Using in-core AOs.

  ==> MemDFJK: Density-Fitted J/K Matrices <==

    J tasked:                   Yes
    K tasked:                   Yes
    wK tasked:                   No
    OpenMP threads:              32
    Memory (MB):                375
    Algorithm:                 Core
    Schwarz Cutoff:           1E-12
    Mask sparsity (%):       1.0414
    Fitting Condition:        1E-12

   => Auxiliary Basis Set <=

  Basis Set: (6-311++G(D,P) AUX)
    Blend: AUG-CC-PVTZ-JKFIT
    Number of shells: 204
    Number of basis function: 692
    Number of Cartesian functions: 854
    Spherical Harmonics?: true
    Max angular momentum: 4

  Minimum eigenvalue in the overlap matrix is 5.4433445320E-04.
  Using Symmetric Orthogonalization.

  SCF Guess: Superposition of Atomic Densities via on-the-fly atomic UHF.

  ==> Iterations <==

                           Total Energy        Delta E     RMS |[F,P]|

   @DF-RKS iter   0:  -231.05032554626428   -2.31050e+02   1.27071e-01 
   @DF-RKS iter   1:  -230.02842280489438    1.02190e+00   1.48772e-02 
   @DF-RKS iter   2:  -229.96746123160838    6.09616e-02   1.78420e-02 DIIS
   @DF-RKS iter   3:  -230.14272128475943   -1.75260e-01   3.57344e-03 DIIS
   @DF-RKS iter   4:  -230.14504238731220   -2.32110e-03   1.33330e-03 DIIS
   @DF-RKS iter   5:  -230.14586052798063   -8.18141e-04   2.55472e-04 DIIS
   @DF-RKS iter   6:  -230.14592225904642   -6.17311e-05   1.03074e-04 DIIS
   @DF-RKS iter   7:  -230.14592784595160   -5.58691e-06   2.58522e-05 DIIS
   @DF-RKS iter   8:  -230.14592830248000   -4.56528e-07   5.47433e-06 DIIS
   @DF-RKS iter   9:  -230.14592833526103   -3.27810e-08   1.85734e-06 DIIS
   @DF-RKS iter  10:  -230.14592833896600   -3.70497e-09   6.88400e-07 DIIS
   @DF-RKS iter  11:  -230.14592833937650   -4.10495e-10   1.14566e-07 DIIS
   @DF-RKS iter  12:  -230.14592833940677   -3.02691e-11   2.07053e-08 DIIS
   @DF-RKS iter  13:  -230.14592833940742   -6.53699e-13   4.97144e-09 DIIS

  ==> Post-Iterations <==

    Orbital Energies [Eh]
    ---------------------

    Doubly Occupied:                                                      

       1A    -19.687349     2A    -19.574664     3A    -10.650718  
       4A    -10.613256     5A     -1.224647     6A     -1.101018  
       7A     -0.821383     8A     -0.740900     9A     -0.635335  
      10A     -0.587568    11A     -0.562467    12A     -0.515849  
      13A     -0.488463    14A     -0.452224    15A     -0.444460  
      16A     -0.346022    17A     -0.317976  

    Virtual:                                                              

      18A     -0.008186    19A      0.012719    20A      0.019598  
      21A      0.023096    22A      0.042564    23A      0.048672  
      24A      0.059958    25A      0.071609    26A      0.079967  
      27A      0.106616    28A      0.116111    29A      0.120600  
      30A      0.123716    31A      0.135643    32A      0.145790  
      33A      0.186558    34A      0.197161    35A      0.200790  
      36A      0.211697    37A      0.220989    38A      0.235503  
      39A      0.252293    40A      0.270361    41A      0.277039  
      42A      0.311024    43A      0.313222    44A      0.327857  
      45A      0.336762    46A      0.342277    47A      0.399087  
      48A      0.429290    49A      0.465247    50A      0.478491  
      51A      0.530030    52A      0.534679    53A      0.562745  
      54A      0.606172    55A      0.654705    56A      0.663484  
      57A      0.681560    58A      0.697047    59A      0.713140  
      60A      0.721660    61A      0.908465    62A      0.973479  
      63A      1.011753    64A      1.037585    65A      1.075508  
      66A      1.131778    67A      1.206132    68A      1.208128  
      69A      1.244313    70A      1.248324    71A      1.298254  
      72A      1.354540    73A      1.463174    74A      1.470285  
      75A      1.530209    76A      1.547192    77A      1.566490  
      78A      1.599497    79A      1.615461    80A      1.657972  
      81A      1.674508    82A      1.714870    83A      1.724857  
      84A      1.751469    85A      1.779700    86A      1.839703  
      87A      1.912693    88A      1.985259    89A      2.030150  
      90A      2.079281    91A      2.148705    92A      2.181964  
      93A      2.328137    94A      2.431129    95A      2.453679  
      96A      2.498781    97A      2.523557    98A      2.533446  
      99A      2.542938   100A      2.584978   101A      2.612984  
     102A      2.715894   103A      2.784012   104A      2.851077  
     105A      2.927848   106A      2.934650   107A      3.000457  
     108A      3.123810   109A      3.178702   110A      3.224799  
     111A      3.310169   112A      3.490281   113A      3.563374  
     114A      3.731050   115A      3.771703   116A      3.807630  
     117A      3.841422   118A      3.946084   119A      4.056064  
     120A      4.133976   121A      5.199623   122A      5.242591  
     123A      5.288812   124A      5.292747   125A      5.612928  
     126A      5.767982   127A     23.912412   128A     23.964967  
     129A     49.972478   130A     50.116557  

    Final Occupation by Irrep:
              A 
    DOCC [    17 ]

  Energy converged.

  @DF-RKS Final Energy:  -230.14592833940742

   => Energetics <=

    Nuclear Repulsion Energy =            134.6867874180795184
    One-Electron Energy =                -580.1402900523728476
    Two-Electron Energy =                 229.8581530115700673
    DFT Exchange-Correlation Energy =     -14.5505787166841518
    Empirical Dispersion Energy =           0.0000000000000000
    VV10 Nonlocal Energy =                  0.0000000000000000
    Total Energy =                       -230.1459283394074191



Properties will be evaluated at   0.000000,   0.000000,   0.000000 [a0]

Properties computed using the SCF density matrix

  Nuclear Dipole Moment: [e a0]
     X:     4.0625      Y:     1.4484      Z:     0.0828

  Electronic Dipole Moment: [e a0]
     X:    -2.6207      Y:    -0.8575      Z:     0.2624

  Dipole Moment: [e a0]
     X:     1.4418      Y:     0.5908      Z:     0.3452     Total:     1.5959

  Dipole Moment: [D]
     X:     3.6647      Y:     1.5018      Z:     0.8774     Total:     4.0565


*** tstop() called on localhost.localdomain at Thu Jan 17 10:51:32 2019
Module time:
	user time   =     147.41 seconds =       2.46 minutes
	system time =       3.86 seconds =       0.06 minutes
	total time  =          5 seconds =       0.08 minutes
Total time:
	user time   =     335.78 seconds =       5.60 minutes
	system time =      12.11 seconds =       0.20 minutes
	total time  =         14 seconds =       0.23 minutes

*** tstart() called on localhost.localdomain
*** at Thu Jan 17 10:51:32 2019


         ------------------------------------------------------------
                                   SCF GRAD                          
                          Rob Parrish, Justin Turney,                
                       Andy Simmonett, and Alex Sokolov              
         ------------------------------------------------------------

  ==> Geometry <==

    Molecular point group: c1
    Full point group: C1

    Geometry (in Angstrom), charge = 0, multiplicity = 1:

       Center              X                  Y                   Z               Mass       
    ------------   -----------------  -----------------  -----------------  -----------------
         C           -0.185735477696    -1.002477227348     0.212109736184    12.000000000000
         O           -1.195684528061    -0.785429625138    -0.581433464264    15.994914619560
         H           -0.371974384973    -1.387722594895     1.221999997050     1.007825032070
         H            0.765468828276    -1.360992606048    -0.215603804585     1.007825032070
         H            1.189997940117     2.220476468129    -0.097606519416     1.007825032070
         C            1.281948197728     1.135597321720    -0.095843074405    12.000000000000
         H            1.403799314634     0.768775334722    -1.119202594037     1.007825032070
         H            2.138034476488     0.845010544104     0.511298829035     1.007825032070
         O            0.099860802835     0.588147561820     0.488610721747    15.994914619560
         H           -0.786225493840     0.460424204874    -0.212088847927     1.007825032070

  Nuclear repulsion =  134.686787418079518

  ==> Basis Set <==

  Basis Set: 6-311++G(D,P)
    Blend: 6-311++G(D,P)
    Number of shells: 70
    Number of basis function: 130
    Number of Cartesian functions: 134
    Spherical Harmonics?: true
    Max angular momentum: 2

  ==> DFJKGrad: Density-Fitted SCF Gradients <==

    Gradient:                    1
    J tasked:                  Yes
    K tasked:                  Yes
    wK tasked:                  No
    OpenMP threads:             32
    Integrals threads:          32
    Memory (MB):               375
    Schwarz Cutoff:          0E+00
    Fitting Condition:       1E-12

   => Auxiliary Basis Set <=

  Basis Set: (6-311++G(D,P) AUX)
    Blend: AUG-CC-PVTZ-JKFIT
    Number of shells: 204
    Number of basis function: 692
    Number of Cartesian functions: 854
    Spherical Harmonics?: true
    Max angular momentum: 4

  ==> DFT Potential <==

   => Composite Functional: M06-2X <= 

    Hybrid M06-2X Meta-GGA XC Functional

    Y. Zhao and D. G. Truhlar,  Theor. Chem. Acc., 120, 215, 2008


    Deriv               =              1
    GGA                 =           TRUE
    Meta                =           TRUE

    Exchange Hybrid     =           TRUE
    MP2 Hybrid          =          FALSE

   => Exchange Functionals <=

    1.0000   XC_HYB_MGGA_X_M06_2X

   => Exact (HF) Exchange <=

    0.5400               HF 

   => Correlation Functionals <=

    1.0000   XC_MGGA_C_M06_2X

   => Molecular Quadrature <=

    Radial Scheme       =       TREUTLER
    Pruning Scheme      =           FLAT
    Nuclear Scheme      =       TREUTLER

    BS radius alpha     =              1
    Pruning alpha       =              1
    Radial Points       =             75
    Spherical Points    =            302
    Total Points        =         226500
    Total Blocks        =           1731
    Max Points          =            256
    Max Functions       =            130


  -Total Gradient:
     Atom            X                  Y                   Z
    ------   -----------------  -----------------  -----------------
       1       -0.001282622164     0.000100314578    -0.000125772676
       2        0.000515913648    -0.000027278792     0.000288391714
       3        0.000180498402     0.000098436458     0.000009683616
       4        0.000481533652    -0.000007968447    -0.000084811514
       5        0.000023270655     0.000034028271     0.000021305184
       6       -0.000083473893     0.000001163253     0.000050816933
       7       -0.000018864626     0.000040577054     0.000004790515
       8        0.000014362637     0.000020690896    -0.000009302919
       9        0.000221701951     0.000103358131     0.000026402833
      10       -0.000056553118    -0.000334999619     0.000087594652


*** tstop() called on localhost.localdomain at Thu Jan 17 10:51:35 2019
Module time:
	user time   =      63.56 seconds =       1.06 minutes
	system time =       3.67 seconds =       0.06 minutes
	total time  =          3 seconds =       0.05 minutes
Total time:
	user time   =     399.40 seconds =       6.66 minutes
	system time =      15.78 seconds =       0.26 minutes
	total time  =         17 seconds =       0.28 minutes

  //>>>>>>>>>>>>>>>>>>>>>>>>>>>>>>>>>>>//
  //    Loading displacement 2 of 49   //
  //<<<<<<<<<<<<<<<<<<<<<<<<<<<<<<<<<<<//
gradient() will perform analytic gradient computation.

*** tstart() called on localhost.localdomain
*** at Thu Jan 17 10:51:35 2019

   => Loading Basis Set <=

    Name: 6-311++G(D,P)
    Role: ORBITAL
    Keyword: BASIS
    atoms 1, 6         entry C          line   119 file /root/psi4conda/share/psi4/basis/6-311ppg_d_p_.gbs 
    atoms 2, 9         entry O          line   161 file /root/psi4conda/share/psi4/basis/6-311ppg_d_p_.gbs 
    atoms 3-5, 7-8, 10 entry H          line    42 file /root/psi4conda/share/psi4/basis/6-311ppg_d_p_.gbs 


         ---------------------------------------------------------
                                   SCF
            by Justin Turney, Rob Parrish, Andy Simmonett
                             and Daniel Smith
                              RKS Reference
                       32 Threads,    500 MiB Core
         ---------------------------------------------------------

  ==> Geometry <==

    Molecular point group: c1
    Full point group: C1

    Geometry (in Angstrom), charge = 0, multiplicity = 1:

       Center              X                  Y                   Z               Mass       
    ------------   -----------------  -----------------  -----------------  -----------------
         C           -0.184494200439    -1.002403349540     0.212218815128    12.000000000000
         O           -1.196127729781    -0.785230302514    -0.581539052776    15.994914619560
         H           -0.372887533931    -1.387460735091     1.222129862697     1.007825032070
         H            0.764823256528    -1.361203780566    -0.215270908055     1.007825032070
         H            1.190175823485     2.220181819225    -0.097706309728     1.007825032070
         C            1.281869816984     1.135281275042    -0.095771701171    12.000000000000
         H            1.403820411642     0.768284826628    -1.119056818121     1.007825032070
         H            2.137777140207     0.844579027160     0.511567199319     1.007825032070
         O            0.099547083213     0.588193607112     0.488545101109    15.994914619560
         H           -0.786441935791     0.460579489876    -0.212297365707     1.007825032070

  Running in c1 symmetry.

  Rotational constants: A =      0.69565  B =      0.16140  C =      0.15484 [cm^-1]
  Rotational constants: A =  20855.08213  B =   4838.54541  C =   4642.07215 [MHz]
  Nuclear repulsion =  134.674777791475663

  Charge       = 0
  Multiplicity = 1
  Electrons    = 34
  Nalpha       = 17
  Nbeta        = 17

  ==> Algorithm <==

  SCF Algorithm Type is DF.
  DIIS enabled.
  MOM disabled.
  Fractional occupation disabled.
  Guess Type is SAD.
  Energy threshold   = 1.00e-08
  Density threshold  = 1.00e-08
  Integral threshold = 0.00e+00

  ==> Primary Basis <==

  Basis Set: 6-311++G(D,P)
    Blend: 6-311++G(D,P)
    Number of shells: 70
    Number of basis function: 130
    Number of Cartesian functions: 134
    Spherical Harmonics?: true
    Max angular momentum: 2

  ==> DFT Potential <==

   => Composite Functional: M06-2X <= 

    Hybrid M06-2X Meta-GGA XC Functional

    Y. Zhao and D. G. Truhlar,  Theor. Chem. Acc., 120, 215, 2008


    Deriv               =              1
    GGA                 =           TRUE
    Meta                =           TRUE

    Exchange Hybrid     =           TRUE
    MP2 Hybrid          =          FALSE

   => Exchange Functionals <=

    1.0000   XC_HYB_MGGA_X_M06_2X

   => Exact (HF) Exchange <=

    0.5400               HF 

   => Correlation Functionals <=

    1.0000   XC_MGGA_C_M06_2X

   => Molecular Quadrature <=

    Radial Scheme       =       TREUTLER
    Pruning Scheme      =           FLAT
    Nuclear Scheme      =       TREUTLER

    BS radius alpha     =              1
    Pruning alpha       =              1
    Radial Points       =             75
    Spherical Points    =            302
    Total Points        =         226500
    Total Blocks        =           1733
    Max Points          =            256
    Max Functions       =            130

   => Loading Basis Set <=

    Name: (6-311++G(D,P) AUX)
    Role: JKFIT
    Keyword: DF_BASIS_SCF
    atoms 1, 6         entry C          line   162 file /root/psi4conda/share/psi4/basis/aug-cc-pvtz-jkfit.gbs 
    atoms 2, 9         entry O          line   286 file /root/psi4conda/share/psi4/basis/aug-cc-pvtz-jkfit.gbs 
    atoms 3-5, 7-8, 10 entry H          line    70 file /root/psi4conda/share/psi4/basis/aug-cc-pvtz-jkfit.gbs 

  ==> Pre-Iterations <==

   -------------------------------------------------------
    Irrep   Nso     Nmo     Nalpha   Nbeta   Ndocc  Nsocc
   -------------------------------------------------------
     A        130     130       0       0       0       0
   -------------------------------------------------------
    Total     130     130      17      17      17       0
   -------------------------------------------------------

  ==> Integral Setup <==

  DFHelper Memory: AOs need 0.117 [GiB]; user supplied 0.366 [GiB]. Using in-core AOs.

  ==> MemDFJK: Density-Fitted J/K Matrices <==

    J tasked:                   Yes
    K tasked:                   Yes
    wK tasked:                   No
    OpenMP threads:              32
    Memory (MB):                375
    Algorithm:                 Core
    Schwarz Cutoff:           1E-12
    Mask sparsity (%):       1.0414
    Fitting Condition:        1E-12

   => Auxiliary Basis Set <=

  Basis Set: (6-311++G(D,P) AUX)
    Blend: AUG-CC-PVTZ-JKFIT
    Number of shells: 204
    Number of basis function: 692
    Number of Cartesian functions: 854
    Spherical Harmonics?: true
    Max angular momentum: 4

  Minimum eigenvalue in the overlap matrix is 5.4419038171E-04.
  Using Symmetric Orthogonalization.

  SCF Guess: Superposition of Atomic Densities via on-the-fly atomic UHF.

  ==> Iterations <==

                           Total Energy        Delta E     RMS |[F,P]|

   @DF-RKS iter   0:  -231.11801205841331   -2.31118e+02   1.09515e-01 
   @DF-RKS iter   1:  -230.06601388708492    1.05200e+00   1.07111e-02 
   @DF-RKS iter   2:  -230.05597863459278    1.00353e-02   1.56997e-02 DIIS
   @DF-RKS iter   3:  -230.14464129449991   -8.86627e-02   1.56730e-03 DIIS
   @DF-RKS iter   4:  -230.14557869289760   -9.37398e-04   8.45258e-04 DIIS
   @DF-RKS iter   5:  -230.14587377649525   -2.95084e-04   3.46496e-04 DIIS
   @DF-RKS iter   6:  -230.14592768729929   -5.39108e-05   4.25964e-05 DIIS
   @DF-RKS iter   7:  -230.14592966182829   -1.97453e-06   1.77927e-05 DIIS
   @DF-RKS iter   8:  -230.14592990059745   -2.38769e-07   4.02963e-06 DIIS
   @DF-RKS iter   9:  -230.14592991129302   -1.06956e-08   8.26934e-07 DIIS
   @DF-RKS iter  10:  -230.14592991213573   -8.42704e-10   4.65180e-07 DIIS
   @DF-RKS iter  11:  -230.14592991226874   -1.33014e-10   8.17742e-08 DIIS
   @DF-RKS iter  12:  -230.14592991228255   -1.38130e-11   1.41704e-08 DIIS
   @DF-RKS iter  13:  -230.14592991228309   -5.40012e-13   4.22637e-09 DIIS

  ==> Post-Iterations <==

    Orbital Energies [Eh]
    ---------------------

    Doubly Occupied:                                                      

       1A    -19.687519     2A    -19.574479     3A    -10.650696  
       4A    -10.613325     5A     -1.224599     6A     -1.100391  
       7A     -0.821418     8A     -0.741185     9A     -0.635289  
      10A     -0.587659    11A     -0.562598    12A     -0.515895  
      13A     -0.488081    14A     -0.452158    15A     -0.444609  
      16A     -0.345819    17A     -0.317922  

    Virtual:                                                              

      18A     -0.008216    19A      0.012705    20A      0.019578  
      21A      0.023075    22A      0.042529    23A      0.048629  
      24A      0.059959    25A      0.071591    26A      0.079982  
      27A      0.106631    28A      0.116152    29A      0.120582  
      30A      0.123743    31A      0.135636    32A      0.145779  
      33A      0.186521    34A      0.197115    35A      0.200783  
      36A      0.211714    37A      0.220965    38A      0.235461  
      39A      0.252356    40A      0.270280    41A      0.276876  
      42A      0.311035    43A      0.313293    44A      0.327861  
      45A      0.336810    46A      0.342128    47A      0.399168  
      48A      0.429049    49A      0.465195    50A      0.478361  
      51A      0.530136    52A      0.534920    53A      0.562560  
      54A      0.606109    55A      0.654631    56A      0.663446  
      57A      0.681492    58A      0.697151    59A      0.712492  
      60A      0.721732    61A      0.908325    62A      0.973591  
      63A      1.011756    64A      1.037538    65A      1.075573  
      66A      1.131809    67A      1.205982    68A      1.208242  
      69A      1.244275    70A      1.248450    71A      1.298289  
      72A      1.354459    73A      1.463143    74A      1.470379  
      75A      1.530700    76A      1.547138    77A      1.566355  
      78A      1.599615    79A      1.615422    80A      1.658207  
      81A      1.674431    82A      1.715022    83A      1.724935  
      84A      1.751390    85A      1.779733    86A      1.839703  
      87A      1.913128    88A      1.985011    89A      2.029495  
      90A      2.079062    91A      2.148742    92A      2.181876  
      93A      2.327930    94A      2.430911    95A      2.453509  
      96A      2.499838    97A      2.523597    98A      2.533562  
      99A      2.543718   100A      2.585048   101A      2.612753  
     102A      2.715983   103A      2.784029   104A      2.850873  
     105A      2.927789   106A      2.934751   107A      3.000299  
     108A      3.124164   109A      3.178594   110A      3.223119  
     111A      3.307373   112A      3.489055   113A      3.563428  
     114A      3.731408   115A      3.772447   116A      3.807680  
     117A      3.841507   118A      3.946281   119A      4.056141  
     120A      4.134521   121A      5.199753   122A      5.242490  
     123A      5.288706   124A      5.292911   125A      5.612757  
     126A      5.766922   127A     23.912132   128A     23.964896  
     129A     49.972364   130A     50.116097  

    Final Occupation by Irrep:
              A 
    DOCC [    17 ]

  Energy converged.

  @DF-RKS Final Energy:  -230.14592991228309

   => Energetics <=

    Nuclear Repulsion Energy =            134.6747777914756625
    One-Electron Energy =                -580.1177386431764944
    Two-Electron Energy =                 229.8474390938430076
    DFT Exchange-Correlation Energy =     -14.5504081544252557
    Empirical Dispersion Energy =           0.0000000000000000
    VV10 Nonlocal Energy =                  0.0000000000000000
    Total Energy =                       -230.1459299122830657



Properties will be evaluated at   0.000000,   0.000000,   0.000000 [a0]

Properties computed using the SCF density matrix

  Nuclear Dipole Moment: [e a0]
     X:     4.0608      Y:     1.4474      Z:     0.0833

  Electronic Dipole Moment: [e a0]
     X:    -2.6149      Y:    -0.8563      Z:     0.2631

  Dipole Moment: [e a0]
     X:     1.4459      Y:     0.5911      Z:     0.3465     Total:     1.6000

  Dipole Moment: [D]
     X:     3.6750      Y:     1.5025      Z:     0.8806     Total:     4.0668


*** tstop() called on localhost.localdomain at Thu Jan 17 10:51:41 2019
Module time:
	user time   =     136.98 seconds =       2.28 minutes
	system time =       3.88 seconds =       0.06 minutes
	total time  =          6 seconds =       0.10 minutes
Total time:
	user time   =     536.83 seconds =       8.95 minutes
	system time =      19.71 seconds =       0.33 minutes
	total time  =         23 seconds =       0.38 minutes

*** tstart() called on localhost.localdomain
*** at Thu Jan 17 10:51:41 2019


         ------------------------------------------------------------
                                   SCF GRAD                          
                          Rob Parrish, Justin Turney,                
                       Andy Simmonett, and Alex Sokolov              
         ------------------------------------------------------------

  ==> Geometry <==

    Molecular point group: c1
    Full point group: C1

    Geometry (in Angstrom), charge = 0, multiplicity = 1:

       Center              X                  Y                   Z               Mass       
    ------------   -----------------  -----------------  -----------------  -----------------
         C           -0.184494200439    -1.002403349540     0.212218815128    12.000000000000
         O           -1.196127729781    -0.785230302514    -0.581539052776    15.994914619560
         H           -0.372887533931    -1.387460735091     1.222129862697     1.007825032070
         H            0.764823256528    -1.361203780566    -0.215270908055     1.007825032070
         H            1.190175823485     2.220181819225    -0.097706309728     1.007825032070
         C            1.281869816984     1.135281275042    -0.095771701171    12.000000000000
         H            1.403820411642     0.768284826628    -1.119056818121     1.007825032070
         H            2.137777140207     0.844579027160     0.511567199319     1.007825032070
         O            0.099547083213     0.588193607112     0.488545101109    15.994914619560
         H           -0.786441935791     0.460579489876    -0.212297365707     1.007825032070

  Nuclear repulsion =  134.674777791475663

  ==> Basis Set <==

  Basis Set: 6-311++G(D,P)
    Blend: 6-311++G(D,P)
    Number of shells: 70
    Number of basis function: 130
    Number of Cartesian functions: 134
    Spherical Harmonics?: true
    Max angular momentum: 2

  ==> DFJKGrad: Density-Fitted SCF Gradients <==

    Gradient:                    1
    J tasked:                  Yes
    K tasked:                  Yes
    wK tasked:                  No
    OpenMP threads:             32
    Integrals threads:          32
    Memory (MB):               375
    Schwarz Cutoff:          0E+00
    Fitting Condition:       1E-12

   => Auxiliary Basis Set <=

  Basis Set: (6-311++G(D,P) AUX)
    Blend: AUG-CC-PVTZ-JKFIT
    Number of shells: 204
    Number of basis function: 692
    Number of Cartesian functions: 854
    Spherical Harmonics?: true
    Max angular momentum: 4

  ==> DFT Potential <==

   => Composite Functional: M06-2X <= 

    Hybrid M06-2X Meta-GGA XC Functional

    Y. Zhao and D. G. Truhlar,  Theor. Chem. Acc., 120, 215, 2008


    Deriv               =              1
    GGA                 =           TRUE
    Meta                =           TRUE

    Exchange Hybrid     =           TRUE
    MP2 Hybrid          =          FALSE

   => Exchange Functionals <=

    1.0000   XC_HYB_MGGA_X_M06_2X

   => Exact (HF) Exchange <=

    0.5400               HF 

   => Correlation Functionals <=

    1.0000   XC_MGGA_C_M06_2X

   => Molecular Quadrature <=

    Radial Scheme       =       TREUTLER
    Pruning Scheme      =           FLAT
    Nuclear Scheme      =       TREUTLER

    BS radius alpha     =              1
    Pruning alpha       =              1
    Radial Points       =             75
    Spherical Points    =            302
    Total Points        =         226500
    Total Blocks        =           1733
    Max Points          =            256
    Max Functions       =            130


  -Total Gradient:
     Atom            X                  Y                   Z
    ------   -----------------  -----------------  -----------------
       1        0.000797522883    -0.000570869744    -0.000268408488
       2       -0.000451098389     0.000016732834    -0.000192528023
       3       -0.000077756452     0.000062068119     0.000223613025
       4       -0.000288694160     0.000205713970     0.000235660538
       5        0.000023598766     0.000037304438     0.000019604239
       6       -0.000111658610    -0.000054596694     0.000052693609
       7       -0.000011775375     0.000034445387     0.000004687425
       8        0.000012388206     0.000016892040    -0.000011689969
       9       -0.000045547063     0.000361706147    -0.000006058951
      10        0.000153407159    -0.000081639965     0.000207076916


*** tstop() called on localhost.localdomain at Thu Jan 17 10:51:44 2019
Module time:
	user time   =      61.30 seconds =       1.02 minutes
	system time =       3.85 seconds =       0.06 minutes
	total time  =          3 seconds =       0.05 minutes
Total time:
	user time   =     598.21 seconds =       9.97 minutes
	system time =      23.56 seconds =       0.39 minutes
	total time  =         26 seconds =       0.43 minutes

  //>>>>>>>>>>>>>>>>>>>>>>>>>>>>>>>>>>>//
  //    Loading displacement 3 of 49   //
  //<<<<<<<<<<<<<<<<<<<<<<<<<<<<<<<<<<<//
gradient() will perform analytic gradient computation.

*** tstart() called on localhost.localdomain
*** at Thu Jan 17 10:51:44 2019

   => Loading Basis Set <=

    Name: 6-311++G(D,P)
    Role: ORBITAL
    Keyword: BASIS
    atoms 1, 6         entry C          line   119 file /root/psi4conda/share/psi4/basis/6-311ppg_d_p_.gbs 
    atoms 2, 9         entry O          line   161 file /root/psi4conda/share/psi4/basis/6-311ppg_d_p_.gbs 
    atoms 3-5, 7-8, 10 entry H          line    42 file /root/psi4conda/share/psi4/basis/6-311ppg_d_p_.gbs 


         ---------------------------------------------------------
                                   SCF
            by Justin Turney, Rob Parrish, Andy Simmonett
                             and Daniel Smith
                              RKS Reference
                       32 Threads,    500 MiB Core
         ---------------------------------------------------------

  ==> Geometry <==

    Molecular point group: c1
    Full point group: C1

    Geometry (in Angstrom), charge = 0, multiplicity = 1:

       Center              X                  Y                   Z               Mass       
    ------------   -----------------  -----------------  -----------------  -----------------
         C           -0.185114839068    -1.003116518712     0.212220772234    12.000000000000
         O           -1.195915160017    -0.785162528033    -0.581488865355    15.994914619560
         H           -0.372539622091    -1.387333977267     1.222137951268     1.007825032070
         H            0.765102333913    -1.360969620363    -0.215315312639     1.007825032070
         H            1.190152076925     2.220451779845    -0.097746760597     1.007825032070
         C            1.281939539636     1.135559127197    -0.095823560605    12.000000000000
         H            1.403874338446     0.768579922763    -1.119116741976     1.007825032070
         H            2.137899994774     0.844926554439     0.511473791172     1.007825032070
         O            0.099690968959     0.588365843732     0.488544365322    15.994914619560
         H           -0.786319505301     0.460680082608    -0.212257921679     1.007825032070

  Running in c1 symmetry.

  Rotational constants: A =      0.69562  B =      0.16136  C =      0.15481 [cm^-1]
  Rotational constants: A =  20854.28247  B =   4837.46208  C =   4641.00270 [MHz]
  Nuclear repulsion =  134.668405662999163

  Charge       = 0
  Multiplicity = 1
  Electrons    = 34
  Nalpha       = 17
  Nbeta        = 17

  ==> Algorithm <==

  SCF Algorithm Type is DF.
  DIIS enabled.
  MOM disabled.
  Fractional occupation disabled.
  Guess Type is SAD.
  Energy threshold   = 1.00e-08
  Density threshold  = 1.00e-08
  Integral threshold = 0.00e+00

  ==> Primary Basis <==

  Basis Set: 6-311++G(D,P)
    Blend: 6-311++G(D,P)
    Number of shells: 70
    Number of basis function: 130
    Number of Cartesian functions: 134
    Spherical Harmonics?: true
    Max angular momentum: 2

  ==> DFT Potential <==

   => Composite Functional: M06-2X <= 

    Hybrid M06-2X Meta-GGA XC Functional

    Y. Zhao and D. G. Truhlar,  Theor. Chem. Acc., 120, 215, 2008


    Deriv               =              1
    GGA                 =           TRUE
    Meta                =           TRUE

    Exchange Hybrid     =           TRUE
    MP2 Hybrid          =          FALSE

   => Exchange Functionals <=

    1.0000   XC_HYB_MGGA_X_M06_2X

   => Exact (HF) Exchange <=

    0.5400               HF 

   => Correlation Functionals <=

    1.0000   XC_MGGA_C_M06_2X

   => Molecular Quadrature <=

    Radial Scheme       =       TREUTLER
    Pruning Scheme      =           FLAT
    Nuclear Scheme      =       TREUTLER

    BS radius alpha     =              1
    Pruning alpha       =              1
    Radial Points       =             75
    Spherical Points    =            302
    Total Points        =         226500
    Total Blocks        =           1733
    Max Points          =            256
    Max Functions       =            130

   => Loading Basis Set <=

    Name: (6-311++G(D,P) AUX)
    Role: JKFIT
    Keyword: DF_BASIS_SCF
    atoms 1, 6         entry C          line   162 file /root/psi4conda/share/psi4/basis/aug-cc-pvtz-jkfit.gbs 
    atoms 2, 9         entry O          line   286 file /root/psi4conda/share/psi4/basis/aug-cc-pvtz-jkfit.gbs 
    atoms 3-5, 7-8, 10 entry H          line    70 file /root/psi4conda/share/psi4/basis/aug-cc-pvtz-jkfit.gbs 

  ==> Pre-Iterations <==

   -------------------------------------------------------
    Irrep   Nso     Nmo     Nalpha   Nbeta   Ndocc  Nsocc
   -------------------------------------------------------
     A        130     130       0       0       0       0
   -------------------------------------------------------
    Total     130     130      17      17      17       0
   -------------------------------------------------------

  ==> Integral Setup <==

  DFHelper Memory: AOs need 0.117 [GiB]; user supplied 0.366 [GiB]. Using in-core AOs.

  ==> MemDFJK: Density-Fitted J/K Matrices <==

    J tasked:                   Yes
    K tasked:                   Yes
    wK tasked:                   No
    OpenMP threads:              32
    Memory (MB):                375
    Algorithm:                 Core
    Schwarz Cutoff:           1E-12
    Mask sparsity (%):       1.0414
    Fitting Condition:        1E-12

   => Auxiliary Basis Set <=

  Basis Set: (6-311++G(D,P) AUX)
    Blend: AUG-CC-PVTZ-JKFIT
    Number of shells: 204
    Number of basis function: 692
    Number of Cartesian functions: 854
    Spherical Harmonics?: true
    Max angular momentum: 4

  Minimum eigenvalue in the overlap matrix is 5.4452215044E-04.
  Using Symmetric Orthogonalization.

  SCF Guess: Superposition of Atomic Densities via on-the-fly atomic UHF.

  ==> Iterations <==

                           Total Energy        Delta E     RMS |[F,P]|

   @DF-RKS iter   0:  -231.09800771564494   -2.31098e+02   9.04264e-02 
   @DF-RKS iter   1:  -230.04241413255002    1.05559e+00   1.10011e-02 
   @DF-RKS iter   2:  -230.00721758232899    3.51966e-02   1.73526e-02 DIIS
   @DF-RKS iter   3:  -230.14329448657043   -1.36077e-01   2.56935e-03 DIIS
   @DF-RKS iter   4:  -230.14517614432401   -1.88166e-03   1.11941e-03 DIIS
   @DF-RKS iter   5:  -230.14586410992669   -6.87966e-04   3.24038e-04 DIIS
   @DF-RKS iter   6:  -230.14592397044274   -5.98605e-05   9.16378e-05 DIIS
   @DF-RKS iter   7:  -230.14592890705450   -4.93661e-06   2.53701e-05 DIIS
   @DF-RKS iter   8:  -230.14592933741034   -4.30356e-07   6.57921e-06 DIIS
   @DF-RKS iter   9:  -230.14592936769807   -3.02877e-08   1.57287e-06 DIIS
   @DF-RKS iter  10:  -230.14592937100778   -3.30971e-09   7.41016e-07 DIIS
   @DF-RKS iter  11:  -230.14592937138650   -3.78719e-10   1.21076e-07 DIIS
   @DF-RKS iter  12:  -230.14592937141458   -2.80806e-11   1.92839e-08 DIIS
   @DF-RKS iter  13:  -230.14592937141532   -7.38964e-13   3.52409e-09 DIIS

  ==> Post-Iterations <==

    Orbital Energies [Eh]
    ---------------------

    Doubly Occupied:                                                      

       1A    -19.687298     2A    -19.574612     3A    -10.650723  
       4A    -10.613226     5A     -1.224412     6A     -1.100630  
       7A     -0.821281     8A     -0.741139     9A     -0.635176  
      10A     -0.587580    11A     -0.562454    12A     -0.515929  
      13A     -0.488289    14A     -0.452158    15A     -0.444412  
      16A     -0.345866    17A     -0.318031  

    Virtual:                                                              

      18A     -0.008193    19A      0.012713    20A      0.019592  
      21A      0.023075    22A      0.042510    23A      0.048639  
      24A      0.059912    25A      0.071599    26A      0.079931  
      27A      0.106596    28A      0.116094    29A      0.120586  
      30A      0.123700    31A      0.135646    32A      0.145744  
      33A      0.186556    34A      0.197180    35A      0.200841  
      36A      0.211736    37A      0.220986    38A      0.235519  
      39A      0.252316    40A      0.270320    41A      0.276939  
      42A      0.311025    43A      0.313253    44A      0.327864  
      45A      0.336797    46A      0.342153    47A      0.399147  
      48A      0.429109    49A      0.465227    50A      0.478484  
      51A      0.530133    52A      0.534860    53A      0.562534  
      54A      0.606183    55A      0.654717    56A      0.663548  
      57A      0.681600    58A      0.697123    59A      0.712678  
      60A      0.721767    61A      0.908441    62A      0.973547  
      63A      1.011770    64A      1.037596    65A      1.075631  
      66A      1.131715    67A      1.206063    68A      1.208121  
      69A      1.244392    70A      1.248441    71A      1.298237  
      72A      1.354582    73A      1.463251    74A      1.470496  
      75A      1.530363    76A      1.547060    77A      1.566356  
      78A      1.599425    79A      1.615312    80A      1.658170  
      81A      1.674415    82A      1.714924    83A      1.724882  
      84A      1.751514    85A      1.779781    86A      1.839710  
      87A      1.913136    88A      1.985143    89A      2.029508  
      90A      2.079116    91A      2.148749    92A      2.181888  
      93A      2.328061    94A      2.430936    95A      2.453511  
      96A      2.499534    97A      2.523654    98A      2.533624  
      99A      2.543878   100A      2.585095   101A      2.612808  
     102A      2.715884   103A      2.783917   104A      2.850925  
     105A      2.927878   106A      2.934784   107A      3.000338  
     108A      3.123762   109A      3.178749   110A      3.223337  
     111A      3.308535   112A      3.489787   113A      3.563088  
     114A      3.731285   115A      3.772395   116A      3.807590  
     117A      3.841537   118A      3.945594   119A      4.056206  
     120A      4.134097   121A      5.199442   122A      5.242536  
     123A      5.288813   124A      5.292710   125A      5.612729  
     126A      5.767222   127A     23.912537   128A     23.964983  
     129A     49.972539   130A     50.116231  

    Final Occupation by Irrep:
              A 
    DOCC [    17 ]

  Energy converged.

  @DF-RKS Final Energy:  -230.14592937141532

   => Energetics <=

    Nuclear Repulsion Energy =            134.6684056629991630
    One-Electron Energy =                -580.1058221380599207
    Two-Electron Energy =                 229.8419293097853142
    DFT Exchange-Correlation Energy =     -14.5504422061398593
    Empirical Dispersion Energy =           0.0000000000000000
    VV10 Nonlocal Energy =                  0.0000000000000000
    Total Energy =                       -230.1459293714153205



Properties will be evaluated at   0.000000,   0.000000,   0.000000 [a0]

Properties computed using the SCF density matrix

  Nuclear Dipole Moment: [e a0]
     X:     4.0616      Y:     1.4487      Z:     0.0832

  Electronic Dipole Moment: [e a0]
     X:    -2.6181      Y:    -0.8595      Z:     0.2627

  Dipole Moment: [e a0]
     X:     1.4435      Y:     0.5892      Z:     0.3459     Total:     1.5970

  Dipole Moment: [D]
     X:     3.6690      Y:     1.4975      Z:     0.8791     Total:     4.0592


*** tstop() called on localhost.localdomain at Thu Jan 17 10:51:50 2019
Module time:
	user time   =     136.95 seconds =       2.28 minutes
	system time =       3.77 seconds =       0.06 minutes
	total time  =          6 seconds =       0.10 minutes
Total time:
	user time   =     735.85 seconds =      12.26 minutes
	system time =      27.39 seconds =       0.46 minutes
	total time  =         32 seconds =       0.53 minutes

*** tstart() called on localhost.localdomain
*** at Thu Jan 17 10:51:50 2019


         ------------------------------------------------------------
                                   SCF GRAD                          
                          Rob Parrish, Justin Turney,                
                       Andy Simmonett, and Alex Sokolov              
         ------------------------------------------------------------

  ==> Geometry <==

    Molecular point group: c1
    Full point group: C1

    Geometry (in Angstrom), charge = 0, multiplicity = 1:

       Center              X                  Y                   Z               Mass       
    ------------   -----------------  -----------------  -----------------  -----------------
         C           -0.185114839068    -1.003116518712     0.212220772234    12.000000000000
         O           -1.195915160017    -0.785162528033    -0.581488865355    15.994914619560
         H           -0.372539622091    -1.387333977267     1.222137951268     1.007825032070
         H            0.765102333913    -1.360969620363    -0.215315312639     1.007825032070
         H            1.190152076925     2.220451779845    -0.097746760597     1.007825032070
         C            1.281939539636     1.135559127197    -0.095823560605    12.000000000000
         H            1.403874338446     0.768579922763    -1.119116741976     1.007825032070
         H            2.137899994774     0.844926554439     0.511473791172     1.007825032070
         O            0.099690968959     0.588365843732     0.488544365322    15.994914619560
         H           -0.786319505301     0.460680082608    -0.212257921679     1.007825032070

  Nuclear repulsion =  134.668405662999163

  ==> Basis Set <==

  Basis Set: 6-311++G(D,P)
    Blend: 6-311++G(D,P)
    Number of shells: 70
    Number of basis function: 130
    Number of Cartesian functions: 134
    Spherical Harmonics?: true
    Max angular momentum: 2

  ==> DFJKGrad: Density-Fitted SCF Gradients <==

    Gradient:                    1
    J tasked:                  Yes
    K tasked:                  Yes
    wK tasked:                  No
    OpenMP threads:             32
    Integrals threads:          32
    Memory (MB):               375
    Schwarz Cutoff:          0E+00
    Fitting Condition:       1E-12

   => Auxiliary Basis Set <=

  Basis Set: (6-311++G(D,P) AUX)
    Blend: AUG-CC-PVTZ-JKFIT
    Number of shells: 204
    Number of basis function: 692
    Number of Cartesian functions: 854
    Spherical Harmonics?: true
    Max angular momentum: 4

  ==> DFT Potential <==

   => Composite Functional: M06-2X <= 

    Hybrid M06-2X Meta-GGA XC Functional

    Y. Zhao and D. G. Truhlar,  Theor. Chem. Acc., 120, 215, 2008


    Deriv               =              1
    GGA                 =           TRUE
    Meta                =           TRUE

    Exchange Hybrid     =           TRUE
    MP2 Hybrid          =          FALSE

   => Exchange Functionals <=

    1.0000   XC_HYB_MGGA_X_M06_2X

   => Exact (HF) Exchange <=

    0.5400               HF 

   => Correlation Functionals <=

    1.0000   XC_MGGA_C_M06_2X

   => Molecular Quadrature <=

    Radial Scheme       =       TREUTLER
    Pruning Scheme      =           FLAT
    Nuclear Scheme      =       TREUTLER

    BS radius alpha     =              1
    Pruning alpha       =              1
    Radial Points       =             75
    Spherical Points    =            302
    Total Points        =         226500
    Total Blocks        =           1733
    Max Points          =            256
    Max Functions       =            130


  -Total Gradient:
     Atom            X                  Y                   Z
    ------   -----------------  -----------------  -----------------
       1        0.000122403835    -0.000715013033     0.000058776234
       2       -0.000126065422     0.000202030335    -0.000069209215
       3        0.000074780727     0.000198253058    -0.000008952946
       4       -0.000025500676     0.000215553543     0.000135098811
       5        0.000013825010     0.000029684429     0.000025309183
       6       -0.000056215475    -0.000024943068     0.000034523338
       7       -0.000020001309     0.000036097068     0.000010640868
       8        0.000010760621     0.000016029481    -0.000012529055
       9        0.000072051794     0.000238499084     0.000025765490
      10       -0.000067969972    -0.000172209512     0.000064848245


*** tstop() called on localhost.localdomain at Thu Jan 17 10:51:53 2019
Module time:
	user time   =      57.89 seconds =       0.96 minutes
	system time =       3.40 seconds =       0.06 minutes
	total time  =          3 seconds =       0.05 minutes
Total time:
	user time   =     793.80 seconds =      13.23 minutes
	system time =      30.79 seconds =       0.51 minutes
	total time  =         35 seconds =       0.58 minutes

  //>>>>>>>>>>>>>>>>>>>>>>>>>>>>>>>>>>>//
  //    Loading displacement 4 of 49   //
  //<<<<<<<<<<<<<<<<<<<<<<<<<<<<<<<<<<<//
gradient() will perform analytic gradient computation.

*** tstart() called on localhost.localdomain
*** at Thu Jan 17 10:51:53 2019

   => Loading Basis Set <=

    Name: 6-311++G(D,P)
    Role: ORBITAL
    Keyword: BASIS
    atoms 1, 6         entry C          line   119 file /root/psi4conda/share/psi4/basis/6-311ppg_d_p_.gbs 
    atoms 2, 9         entry O          line   161 file /root/psi4conda/share/psi4/basis/6-311ppg_d_p_.gbs 
    atoms 3-5, 7-8, 10 entry H          line    42 file /root/psi4conda/share/psi4/basis/6-311ppg_d_p_.gbs 


         ---------------------------------------------------------
                                   SCF
            by Justin Turney, Rob Parrish, Andy Simmonett
                             and Daniel Smith
                              RKS Reference
                       32 Threads,    500 MiB Core
         ---------------------------------------------------------

  ==> Geometry <==

    Molecular point group: c1
    Full point group: C1

    Geometry (in Angstrom), charge = 0, multiplicity = 1:

       Center              X                  Y                   Z               Mass       
    ------------   -----------------  -----------------  -----------------  -----------------
         C           -0.185114839068    -1.001764058176     0.212107779078    12.000000000000
         O           -1.195897097825    -0.785497399619    -0.581483651685    15.994914619560
         H           -0.372322296813    -1.387849352719     1.221991908478     1.007825032070
         H            0.765189750892    -1.361226766251    -0.215559400001     1.007825032070
         H            1.190021686678     2.220206507509    -0.097566068547     1.007825032070
         C            1.281878475077     1.135319469565    -0.095791214971    12.000000000000
         H            1.403745387830     0.768480238587    -1.119142670182     1.007825032070
         H            2.137911621921     0.844663016825     0.511392237182     1.007825032070
         O            0.099716917089     0.587975325200     0.488611457534    15.994914619560
         H           -0.786347924331     0.460323612142    -0.212128291955     1.007825032070

  Running in c1 symmetry.

  Rotational constants: A =      0.69617  B =      0.16140  C =      0.15486 [cm^-1]
  Rotational constants: A =  20870.64952  B =   4838.57657  C =   4642.66724 [MHz]
  Nuclear repulsion =  134.693153180196930

  Charge       = 0
  Multiplicity = 1
  Electrons    = 34
  Nalpha       = 17
  Nbeta        = 17

  ==> Algorithm <==

  SCF Algorithm Type is DF.
  DIIS enabled.
  MOM disabled.
  Fractional occupation disabled.
  Guess Type is SAD.
  Energy threshold   = 1.00e-08
  Density threshold  = 1.00e-08
  Integral threshold = 0.00e+00

  ==> Primary Basis <==

  Basis Set: 6-311++G(D,P)
    Blend: 6-311++G(D,P)
    Number of shells: 70
    Number of basis function: 130
    Number of Cartesian functions: 134
    Spherical Harmonics?: true
    Max angular momentum: 2

  ==> DFT Potential <==

   => Composite Functional: M06-2X <= 

    Hybrid M06-2X Meta-GGA XC Functional

    Y. Zhao and D. G. Truhlar,  Theor. Chem. Acc., 120, 215, 2008


    Deriv               =              1
    GGA                 =           TRUE
    Meta                =           TRUE

    Exchange Hybrid     =           TRUE
    MP2 Hybrid          =          FALSE

   => Exchange Functionals <=

    1.0000   XC_HYB_MGGA_X_M06_2X

   => Exact (HF) Exchange <=

    0.5400               HF 

   => Correlation Functionals <=

    1.0000   XC_MGGA_C_M06_2X

   => Molecular Quadrature <=

    Radial Scheme       =       TREUTLER
    Pruning Scheme      =           FLAT
    Nuclear Scheme      =       TREUTLER

    BS radius alpha     =              1
    Pruning alpha       =              1
    Radial Points       =             75
    Spherical Points    =            302
    Total Points        =         226500
    Total Blocks        =           1731
    Max Points          =            256
    Max Functions       =            130

   => Loading Basis Set <=

    Name: (6-311++G(D,P) AUX)
    Role: JKFIT
    Keyword: DF_BASIS_SCF
    atoms 1, 6         entry C          line   162 file /root/psi4conda/share/psi4/basis/aug-cc-pvtz-jkfit.gbs 
    atoms 2, 9         entry O          line   286 file /root/psi4conda/share/psi4/basis/aug-cc-pvtz-jkfit.gbs 
    atoms 3-5, 7-8, 10 entry H          line    70 file /root/psi4conda/share/psi4/basis/aug-cc-pvtz-jkfit.gbs 

  ==> Pre-Iterations <==

   -------------------------------------------------------
    Irrep   Nso     Nmo     Nalpha   Nbeta   Ndocc  Nsocc
   -------------------------------------------------------
     A        130     130       0       0       0       0
   -------------------------------------------------------
    Total     130     130      17      17      17       0
   -------------------------------------------------------

  ==> Integral Setup <==

  DFHelper Memory: AOs need 0.117 [GiB]; user supplied 0.366 [GiB]. Using in-core AOs.

  ==> MemDFJK: Density-Fitted J/K Matrices <==

    J tasked:                   Yes
    K tasked:                   Yes
    wK tasked:                   No
    OpenMP threads:              32
    Memory (MB):                375
    Algorithm:                 Core
    Schwarz Cutoff:           1E-12
    Mask sparsity (%):       1.0414
    Fitting Condition:        1E-12

   => Auxiliary Basis Set <=

  Basis Set: (6-311++G(D,P) AUX)
    Blend: AUG-CC-PVTZ-JKFIT
    Number of shells: 204
    Number of basis function: 692
    Number of Cartesian functions: 854
    Spherical Harmonics?: true
    Max angular momentum: 4

  Minimum eigenvalue in the overlap matrix is 5.4400208458E-04.
  Using Symmetric Orthogonalization.

  SCF Guess: Superposition of Atomic Densities via on-the-fly atomic UHF.

  ==> Iterations <==

                           Total Energy        Delta E     RMS |[F,P]|

   @DF-RKS iter   0:  -230.96352060286753   -2.30964e+02   1.35113e-01 
   @DF-RKS iter   1:  -230.07499659460944    8.88524e-01   1.16094e-02 
   @DF-RKS iter   2:  -230.07015487300259    4.84172e-03   1.35182e-02 DIIS
   @DF-RKS iter   3:  -230.14436123126822   -7.42064e-02   2.25435e-03 DIIS
   @DF-RKS iter   4:  -230.14553341801127   -1.17219e-03   7.60926e-04 DIIS
   @DF-RKS iter   5:  -230.14588111979080   -3.47702e-04   3.89946e-04 DIIS
   @DF-RKS iter   6:  -230.14592529413790   -4.41743e-05   9.86462e-05 DIIS
   @DF-RKS iter   7:  -230.14592966468763   -4.37055e-06   1.40006e-05 DIIS
   @DF-RKS iter   8:  -230.14592989712253   -2.32435e-07   3.72099e-06 DIIS
   @DF-RKS iter   9:  -230.14592991233090   -1.52084e-08   1.75555e-06 DIIS
   @DF-RKS iter  10:  -230.14592991465349   -2.32259e-09   5.55965e-07 DIIS
   @DF-RKS iter  11:  -230.14592991486703   -2.13532e-10   9.68316e-08 DIIS
   @DF-RKS iter  12:  -230.14592991488144   -1.44098e-11   1.66416e-08 DIIS
   @DF-RKS iter  13:  -230.14592991488246   -1.02318e-12   3.90833e-09 DIIS

  ==> Post-Iterations <==

    Orbital Energies [Eh]
    ---------------------

    Doubly Occupied:                                                      

       1A    -19.687571     2A    -19.574531     3A    -10.650691  
       4A    -10.613355     5A     -1.224834     6A     -1.100779  
       7A     -0.821520     8A     -0.740945     9A     -0.635448  
      10A     -0.587647    11A     -0.562611    12A     -0.515815  
      13A     -0.488255    14A     -0.452224    15A     -0.444657  
      16A     -0.345975    17A     -0.317867  

    Virtual:                                                              

      18A     -0.008209    19A      0.012712    20A      0.019583  
      21A      0.023096    22A      0.042582    23A      0.048661  
      24A      0.060005    25A      0.071600    26A      0.080019  
      27A      0.106651    28A      0.116169    29A      0.120597  
      30A      0.123759    31A      0.135633    32A      0.145825  
      33A      0.186522    34A      0.197096    35A      0.200732  
      36A      0.211675    37A      0.220969    38A      0.235444  
      39A      0.252334    40A      0.270322    41A      0.276975  
      42A      0.311033    43A      0.313261    44A      0.327855  
      45A      0.336776    46A      0.342251    47A      0.399108  
      48A      0.429230    49A      0.465215    50A      0.478368  
      51A      0.530033    52A      0.534738    53A      0.562771  
      54A      0.606097    55A      0.654619    56A      0.663382  
      57A      0.681454    58A      0.697074    59A      0.712950  
      60A      0.721624    61A      0.908349    62A      0.973523  
      63A      1.011738    64A      1.037526    65A      1.075450  
      66A      1.131872    67A      1.206055    68A      1.208246  
      69A      1.244193    70A      1.248335    71A      1.298305  
      72A      1.354416    73A      1.463065    74A      1.470168  
      75A      1.530542    76A      1.547273    77A      1.566488  
      78A      1.599690    79A      1.615571    80A      1.658009  
      81A      1.674524    82A      1.714969    83A      1.724910  
      84A      1.751345    85A      1.779653    86A      1.839695  
      87A      1.912686    88A      1.985127    89A      2.030137  
      90A      2.079224    91A      2.148697    92A      2.181953  
      93A      2.328009    94A      2.431103    95A      2.453677  
      96A      2.499090    97A      2.523492    98A      2.533378  
      99A      2.542781   100A      2.584930   101A      2.612928  
     102A      2.715994   103A      2.784124   104A      2.851027  
     105A      2.927762   106A      2.934614   107A      3.000419  
     108A      3.124213   109A      3.178546   110A      3.224582  
     111A      3.309005   112A      3.489545   113A      3.563711  
     114A      3.731178   115A      3.771752   116A      3.807720  
[...]
  Generating complete list of displacements from unique ones.


-------------------------------------------------------------


  ==> Harmonic Vibrational Analysis <==

  non-mass-weighted Hessian:       Symmetric? True   Hermitian? True   Lin Dep Dim?  6 (0)
  projection of translations (True) and rotations (True) removed 6 degrees of freedom (6)
  total projector:                 Symmetric? True   Hermitian? True   Lin Dep Dim?  6 (6)
  mass-weighted Hessian:           Symmetric? True   Hermitian? True   Lin Dep Dim?  6 (0)
  pre-proj  low-frequency mode:    0.0000i [cm^-1]
  pre-proj  low-frequency mode:    0.0000i [cm^-1]
  pre-proj  low-frequency mode:    0.0000i [cm^-1]
  pre-proj  low-frequency mode:    0.0000i [cm^-1]
  pre-proj  low-frequency mode:    0.0000  [cm^-1]
  pre-proj  low-frequency mode:    0.0000  [cm^-1]
  pre-proj  low-frequency mode:    0.0000  [cm^-1]
  pre-proj  all modes:['1414.5775i' '0.0000i' '0.0000i' '0.0000i' '0.0000' '0.0000' '0.0000'
 '116.2972' '219.5701' '328.9069' '612.0411' '730.8196' '956.7579'
 '1062.9884' '1143.8430' '1192.3008' '1217.9902' '1287.6303' '1324.9044'
 '1389.8543' '1485.1184' '1502.8457' '1511.5916' '1574.9180' '2134.3222'
 '2987.5189' '3064.6347' '3068.9148' '3151.9425' '3179.0397']
  projected mass-weighted Hessian: Symmetric? True   Hermitian? True   Lin Dep Dim?  6 (6)
  post-proj low-frequency mode: 1414.5775i [cm^-1] (V)
  post-proj low-frequency mode:    0.0000i [cm^-1] (TR)
  post-proj low-frequency mode:    0.0000i [cm^-1] (TR)
  post-proj low-frequency mode:    0.0000  [cm^-1] (TR)
  post-proj low-frequency mode:    0.0000  [cm^-1] (TR)
  post-proj low-frequency mode:    0.0000  [cm^-1] (TR)
  post-proj low-frequency mode:    0.0000  [cm^-1] (TR)
  post-proj  all modes:['1414.5775i' '0.0000i' '0.0000i' '0.0000' '0.0000' '0.0000' '0.0000'
 '116.2972' '219.5701' '328.9069' '612.0411' '730.8196' '956.7579'
 '1062.9884' '1143.8430' '1192.3008' '1217.9902' '1287.6303' '1324.9044'
 '1389.8543' '1485.1184' '1502.8457' '1511.5916' '1574.9180' '2134.3222'
 '2987.5189' '3064.6347' '3068.9148' '3151.9425' '3179.0397']

  Vibration                       1                   8                   9           
  Freq [cm^-1]                1414.5775i           116.2972            219.5701       
  Irrep                           A                   A                   A           
  Reduced mass [u]              1.2344              2.8016              1.2112        
  Force const [mDyne/A]        -1.4553              0.0223              0.0344        
  Turning point v=0 [a0]        0.0000              0.6079              0.6729        
  RMS dev v=0 [a0 u^1/2]        0.0000              0.7195              0.5236        
  Char temp [K]                 0.0000             167.3256            315.9120       
  ----------------------------------------------------------------------------------
      1   C               -0.07 -0.07 -0.05   -0.02  0.02  0.09    0.02  0.03  0.01   
      2   O                0.02 -0.06  0.01    0.15  0.07 -0.13   -0.01 -0.06  0.02   
      3   H                0.00  0.03  0.02   -0.26  0.04  0.05    0.06  0.06  0.03   
      4   H                0.02  0.05  0.01    0.04 -0.05  0.29    0.03  0.06  0.01   
      5   H                0.04  0.02 -0.02    0.01 -0.07  0.01    0.33  0.01  0.54   
      6   C                0.00  0.02 -0.01   -0.12 -0.08 -0.15    0.03 -0.01  0.03   
      7   H               -0.01 -0.02  0.01   -0.55  0.01 -0.23   -0.20  0.41 -0.15   
      8   H               -0.04 -0.02  0.02    0.06 -0.27 -0.49    0.03 -0.53 -0.21   
      9   O               -0.00  0.05  0.01   -0.00 -0.01  0.19   -0.04  0.04 -0.06   
     10   H                0.56  0.69  0.43   -0.00  0.03  0.18   -0.01  0.00 -0.08   

  Vibration                       10                  11                  12          
  Freq [cm^-1]                 328.9069            612.0411            730.8196       
  Irrep                           A                   A                   A           
  Reduced mass [u]              2.3118              3.8886              6.2363        
  Force const [mDyne/A]         0.1473              0.8582              1.9624        
  Turning point v=0 [a0]        0.3979              0.2249              0.1625        
  RMS dev v=0 [a0 u^1/2]        0.4278              0.3136              0.2870        
  Char temp [K]                473.2230            880.5896           1051.4851       
  ----------------------------------------------------------------------------------
      1   C               -0.14 -0.12  0.10    0.03  0.37  0.04    0.10 -0.14  0.06   
      2   O               -0.01  0.01 -0.03   -0.04 -0.06 -0.03    0.21  0.33  0.17   
      3   H               -0.35  0.13  0.15    0.07  0.44  0.09    0.11 -0.15  0.08   
      4   H               -0.18 -0.42  0.26    0.02  0.16  0.14    0.09 -0.25  0.07   
      5   H               -0.17  0.18  0.27   -0.34 -0.06  0.16   -0.20 -0.10  0.20   
      6   C                0.02  0.19 -0.01   -0.02 -0.03  0.01   -0.21 -0.10  0.03   
      7   H                0.02  0.46 -0.10    0.03  0.07 -0.00    0.04  0.03  0.01   
      8   H                0.12  0.20 -0.14   -0.04  0.08  0.06   -0.36 -0.17  0.20   
      9   O                0.13 -0.09 -0.06    0.04 -0.27 -0.05   -0.12 -0.13 -0.28   
     10   H                0.08 -0.10 -0.06    0.09  0.52  0.27    0.22  0.41 -0.03   

  Vibration                       13                  14                  15          
  Freq [cm^-1]                 956.7579           1062.9884           1143.8430       
  Irrep                           A                   A                   A           
  Reduced mass [u]              1.1625              2.0611              1.5032        
  Force const [mDyne/A]         0.6270              1.3721              1.1588        
  Turning point v=0 [a0]        0.3290              0.2344              0.2646        
  RMS dev v=0 [a0 u^1/2]        0.2508              0.2380              0.2294        
  Char temp [K]               1376.5595           1529.4013           1645.7329       
  ----------------------------------------------------------------------------------
      1   C                0.04 -0.01 -0.07   -0.02  0.02 -0.01   -0.00  0.00 -0.02   
      2   O                0.00 -0.01 -0.00   -0.02 -0.02 -0.00   -0.02 -0.02 -0.00   
      3   H                0.11  0.65  0.19    0.10  0.12  0.05   -0.31 -0.17 -0.14   
      4   H               -0.18 -0.56 -0.09   -0.03  0.15 -0.11    0.22  0.26  0.27   
      5   H                0.12  0.01 -0.03   -0.34 -0.12  0.01    0.02 -0.04  0.23   
      6   C               -0.06 -0.01  0.03   -0.15 -0.11  0.13   -0.11 -0.05 -0.03   
      7   H               -0.02 -0.09  0.06   -0.35 -0.03  0.06    0.36  0.13 -0.04   
      8   H               -0.12 -0.10  0.08    0.17  0.15 -0.20   -0.35 -0.09  0.30   
      9   O                0.03  0.04  0.00    0.15  0.08 -0.04    0.13  0.06 -0.02   
     10   H               -0.22 -0.04  0.24    0.47 -0.10 -0.52   -0.28 -0.09  0.35   

  Vibration                       16                  17                  18          
  Freq [cm^-1]                1192.3008           1217.9902           1287.6303       
  Irrep                           A                   A                   A           
  Reduced mass [u]              1.2801              1.4623              1.3192        
  Force const [mDyne/A]         1.0721              1.2782              1.2887        
  Turning point v=0 [a0]        0.2809              0.2600              0.2662        
  RMS dev v=0 [a0 u^1/2]        0.2247              0.2223              0.2162        
  Char temp [K]               1715.4527           1752.4140           1852.6104       
  ----------------------------------------------------------------------------------
      1   C               -0.06 -0.00  0.07   -0.05  0.01  0.09    0.05 -0.00 -0.03   
      2   O                0.04 -0.00 -0.04    0.01 -0.00 -0.04   -0.05  0.01  0.01   
      3   H                0.47 -0.01  0.18    0.29 -0.22  0.07   -0.04  0.21  0.02   
      4   H               -0.29  0.04 -0.46   -0.18  0.17 -0.30    0.11 -0.09  0.15   
      5   H               -0.26 -0.08  0.29    0.53  0.15 -0.23    0.16  0.05  0.13   
      6   C                0.01 -0.06 -0.07   -0.08  0.10  0.02   -0.04  0.03 -0.09   
      7   H                0.35  0.26 -0.14   -0.09 -0.31  0.16    0.32  0.01 -0.04   
      8   H               -0.10  0.12  0.17   -0.27 -0.34  0.07   -0.30 -0.14  0.19   
      9   O               -0.01  0.03  0.03    0.07 -0.05 -0.02   -0.02 -0.03  0.09   
     10   H               -0.01 -0.03  0.02    0.03 -0.03 -0.01    0.54 -0.06 -0.54   

  Vibration                       19                  20                  21          
  Freq [cm^-1]                1324.9044           1389.8543           1485.1184       
  Irrep                           A                   A                   A           
  Reduced mass [u]              1.3700              1.9813              1.1676        
  Force const [mDyne/A]         1.4169              2.2549              1.5172        
  Turning point v=0 [a0]        0.2576              0.2091              0.2635        
  RMS dev v=0 [a0 u^1/2]        0.2132              0.2081              0.2013        
  Char temp [K]               1906.2395           1999.6879           2136.7515       
  ----------------------------------------------------------------------------------
      1   C                0.03 -0.11  0.04    0.16  0.00  0.12    0.03  0.02  0.02   
      2   O               -0.07  0.05 -0.07   -0.14  0.01 -0.11   -0.02 -0.00 -0.02   
      3   H                0.45  0.39  0.31    0.22 -0.52 -0.05    0.07 -0.14 -0.02   
      4   H                0.37  0.50  0.31   -0.01 -0.58  0.20   -0.02 -0.15  0.06   
      5   H                0.02  0.00 -0.05   -0.22 -0.03  0.11    0.57  0.01 -0.14   
      6   C                0.01 -0.00  0.01    0.02 -0.01 -0.00   -0.09 -0.05  0.03   
      7   H               -0.02  0.02 -0.00   -0.22 -0.09  0.01    0.39  0.30 -0.04   
      8   H                0.08  0.04 -0.05   -0.10 -0.05  0.14    0.30  0.41 -0.28   
      9   O               -0.01 -0.02 -0.01    0.01  0.06 -0.02   -0.02 -0.01  0.00   
     10   H               -0.06 -0.04  0.13    0.11  0.24  0.11    0.01  0.12  0.02   

  Vibration                       22                  23                  24          
  Freq [cm^-1]                1502.8457           1511.5916           1574.9180       
  Irrep                           A                   A                   A           
  Reduced mass [u]              1.0439              1.0470              1.3713        
  Force const [mDyne/A]         1.3891              1.4095              2.0040        
  Turning point v=0 [a0]        0.2770              0.2758              0.2361        
  RMS dev v=0 [a0 u^1/2]        0.2001              0.1996              0.1955        
  Char temp [K]               2162.2571           2174.8405           2265.9528       
  ----------------------------------------------------------------------------------
      1   C                0.01 -0.00  0.01   -0.01 -0.00 -0.01   -0.13  0.06 -0.10   
      2   O               -0.00  0.00 -0.00    0.01 -0.00  0.01    0.04 -0.01  0.03   
      3   H               -0.07  0.04  0.01    0.00  0.02  0.00    0.64 -0.25 -0.04   
      4   H               -0.02  0.04 -0.07    0.00  0.03  0.00    0.10 -0.28  0.60   
      5   H                0.16 -0.01 -0.43    0.35  0.02  0.52   -0.01  0.00 -0.06   
      6   C                0.03 -0.04  0.01    0.01 -0.01 -0.05    0.01  0.00  0.00   
      7   H               -0.40  0.53 -0.24   -0.39 -0.30  0.03   -0.06  0.06 -0.03   
      8   H               -0.24  0.12  0.44   -0.01  0.54  0.25   -0.06 -0.03  0.07   
      9   O                0.00 -0.01  0.00    0.00 -0.01 -0.01    0.01  0.00  0.01   
     10   H                0.04 -0.01 -0.02   -0.02 -0.02 -0.02   -0.06 -0.10 -0.08   

  Vibration                       25                  26                  27          
  Freq [cm^-1]                2134.3222           2987.5189           3064.6347       
  Irrep                           A                   A                   A           
  Reduced mass [u]              1.0633              1.0575              1.0411        
  Force const [mDyne/A]         2.8537              5.5611              5.7608        
  Turning point v=0 [a0]        0.2303              0.1952              0.1943        
  RMS dev v=0 [a0 u^1/2]        0.1679              0.1420              0.1402        
  Char temp [K]               3070.8098           4298.3679           4409.3203       
  ----------------------------------------------------------------------------------
      1   C               -0.00 -0.04 -0.00   -0.06  0.03  0.00   -0.01 -0.01  0.02   
      2   O                0.00 -0.02  0.00   -0.00  0.00 -0.00    0.00  0.00  0.00   
      3   H                0.01  0.02  0.03   -0.09 -0.13  0.36    0.05  0.09 -0.24   
      4   H                0.03  0.03  0.00    0.78 -0.28 -0.38    0.07 -0.02 -0.03   
      5   H               -0.01  0.01 -0.00    0.00 -0.00 -0.00    0.04 -0.39 -0.01   
      6   C               -0.00  0.00 -0.00    0.00 -0.00 -0.00    0.03  0.00 -0.04   
      7   H               -0.00 -0.01 -0.01   -0.00  0.01  0.03   -0.08  0.26  0.72   
      8   H               -0.03 -0.03  0.03   -0.01  0.01 -0.01   -0.33  0.11 -0.24   
      9   O                0.03  0.00  0.03    0.00  0.00  0.00    0.00  0.00 -0.00   
     10   H               -0.54  0.67 -0.51   -0.01 -0.02 -0.00   -0.01  0.00 -0.01   

  Vibration                       28                  29                  30          
  Freq [cm^-1]                3068.9148           3151.9425           3179.0397       
  Irrep                           A                   A                   A           
  Reduced mass [u]              1.1031              1.0998              1.1077        
  Force const [mDyne/A]         6.1212              6.4378              6.5959        
  Turning point v=0 [a0]        0.1886              0.1864              0.1849        
  RMS dev v=0 [a0 u^1/2]        0.1401              0.1382              0.1376        
  Char temp [K]               4415.4784           4534.9365           4573.9233       
  ----------------------------------------------------------------------------------
      1   C                0.04  0.02 -0.08    0.00  0.00 -0.00    0.00 -0.00 -0.00   
      2   O               -0.00  0.00  0.00    0.00  0.00  0.00   -0.00 -0.00 -0.00   
      3   H               -0.16 -0.30  0.81   -0.00 -0.00  0.00   -0.00 -0.00  0.01   
      4   H               -0.31  0.12  0.14   -0.01  0.00  0.00   -0.01  0.01  0.01   
      5   H                0.01 -0.13 -0.00   -0.06  0.53 -0.01   -0.07  0.74  0.01   
      6   C                0.01  0.00 -0.01   -0.03 -0.05 -0.07    0.05 -0.08  0.03   
      7   H               -0.02  0.08  0.22   -0.06  0.20  0.54    0.01 -0.01  0.02   
      8   H               -0.10  0.03 -0.07    0.48 -0.18  0.34   -0.52  0.17 -0.38   
      9   O                0.00  0.00  0.00   -0.00 -0.00  0.00   -0.00  0.00 -0.00   
     10   H                0.00 -0.01 -0.01    0.00  0.00 -0.00   -0.00 -0.00  0.00   

  ==> Thermochemistry Components <==

  Entropy, S
    Electronic S            0.000 [cal/(mol K)]        0.000 [J/(mol K)]       0.00000000 [mEh/K] (multiplicity = 1)
    Translational S        38.295 [cal/(mol K)]      160.226 [J/(mol K)]       0.06102678 [mEh/K] (mol. weight = 62.0368 [u], P = 101325.00 [Pa])
    Rotational S           24.043 [cal/(mol K)]      100.597 [J/(mol K)]       0.03831544 [mEh/K] (symmetry no. = 1)
    Vibrational S           7.524 [cal/(mol K)]       31.480 [J/(mol K)]       0.01199012 [mEh/K]
  Total S                  69.862 [cal/(mol K)]      292.303 [J/(mol K)]       0.11133234 [mEh/K]
  Correction S              0.000 [cal/(mol K)]        0.000 [J/(mol K)]       0.00000000 [mEh/K]

  Constant volume heat capacity, Cv
    Electronic Cv           0.000 [cal/(mol K)]        0.000 [J/(mol K)]       0.00000000 [mEh/K]
    Translational Cv        2.981 [cal/(mol K)]       12.472 [J/(mol K)]       0.00475022 [mEh/K]
    Rotational Cv           2.981 [cal/(mol K)]       12.472 [J/(mol K)]       0.00475022 [mEh/K]
    Vibrational Cv          9.221 [cal/(mol K)]       38.581 [J/(mol K)]       0.01469481 [mEh/K]
  Total Cv                 15.183 [cal/(mol K)]       63.525 [J/(mol K)]       0.02419525 [mEh/K]
  Correction Cv             0.000 [cal/(mol K)]        0.000 [J/(mol K)]       0.00000000 [mEh/K]

  Constant pressure heat capacity, Cp
    Electronic Cp           0.000 [cal/(mol K)]        0.000 [J/(mol K)]       0.00000000 [mEh/K]
    Translational Cp        4.968 [cal/(mol K)]       20.786 [J/(mol K)]       0.00791704 [mEh/K]
    Rotational Cp           2.981 [cal/(mol K)]       12.472 [J/(mol K)]       0.00475022 [mEh/K]
    Vibrational Cp          9.221 [cal/(mol K)]       38.581 [J/(mol K)]       0.01469481 [mEh/K]
  Total Cp                 17.170 [cal/(mol K)]       71.839 [J/(mol K)]       0.02736206 [mEh/K]
  Correction Cp             0.000 [cal/(mol K)]        0.000 [J/(mol K)]       0.00000000 [mEh/K]

  ==> Thermochemistry Energy Analysis <==

  Raw electronic energy, E0
  Total E0, Electronic energy at well bottom at 0 [K]                 -230.14593005 [Eh]

  Zero-point energy, ZPE_vib = Sum_i nu_i / 2
    Electronic ZPE          0.000 [kcal/mol]        0.000 [kJ/mol]       0.00000000 [Eh]
    Translational ZPE       0.000 [kcal/mol]        0.000 [kJ/mol]       0.00000000 [Eh]
    Rotational ZPE          0.000 [kcal/mol]        0.000 [kJ/mol]       0.00000000 [Eh]
    Vibrational ZPE        50.385 [kcal/mol]      210.810 [kJ/mol]       0.08029343 [Eh]       17622.369 [cm^-1]
  Correction ZPE           50.385 [kcal/mol]      210.810 [kJ/mol]       0.08029343 [Eh]       17622.369 [cm^-1]
  Total ZPE, Electronic energy at 0 [K]                               -230.06563661 [Eh]

  Thermal Energy, E (includes ZPE)
    Electronic E            0.000 [kcal/mol]        0.000 [kJ/mol]       0.00000000 [Eh]
    Translational E         0.889 [kcal/mol]        3.718 [kJ/mol]       0.00141628 [Eh]
    Rotational E            0.889 [kcal/mol]        3.718 [kJ/mol]       0.00141628 [Eh]
    Vibrational E          51.670 [kcal/mol]      216.189 [kJ/mol]       0.08234211 [Eh]
  Correction E             53.448 [kcal/mol]      223.626 [kJ/mol]       0.08517467 [Eh]
  Total E, Electronic energy at  298.15 [K]                           -230.06075538 [Eh]

  Enthalpy, H_trans = E_trans + k_B * T
    Electronic H            0.000 [kcal/mol]        0.000 [kJ/mol]       0.00000000 [Eh]
    Translational H         1.481 [kcal/mol]        6.197 [kJ/mol]       0.00236046 [Eh]
    Rotational H            0.889 [kcal/mol]        3.718 [kJ/mol]       0.00141628 [Eh]
    Vibrational H          51.670 [kcal/mol]      216.189 [kJ/mol]       0.08234211 [Eh]
  Correction H             54.040 [kcal/mol]      226.105 [kJ/mol]       0.08611885 [Eh]
  Total H, Enthalpy at  298.15 [K]                                    -230.05981120 [Eh]

  Gibbs free energy, G = H - T * S
    Electronic G            0.000 [kcal/mol]        0.000 [kJ/mol]       0.00000000 [Eh]
    Translational G        -9.936 [kcal/mol]      -41.574 [kJ/mol]      -0.01583467 [Eh]
    Rotational G           -6.280 [kcal/mol]      -26.275 [kJ/mol]      -0.01000747 [Eh]
    Vibrational G          49.427 [kcal/mol]      206.803 [kJ/mol]       0.07876726 [Eh]
  Correction G             33.211 [kcal/mol]      138.955 [kJ/mol]       0.05292512 [Eh]
  Total G, Free enthalpy at  298.15 [K]                               -230.09300493 [Eh]

    Psi4 stopped on: Thursday, 17 January 2019 10:58AM
    Psi4 wall time for execution: 0:07:00.99

*** Psi4 exiting successfully. Buy a developer a beer!
