
    -----------------------------------------------------------------------
          Psi4: An Open-Source Ab Initio Electronic Structure Package
                               Psi4 1.2.1 release

                         Git: Rev {HEAD} 406f4de 


    R. M. Parrish, L. A. Burns, D. G. A. Smith, A. C. Simmonett,
    A. E. DePrince III, E. G. Hohenstein, U. Bozkaya, A. Yu. Sokolov,
    R. Di Remigio, R. M. Richard, J. F. Gonthier, A. M. James,
    H. R. McAlexander, A. Kumar, M. Saitow, X. Wang, B. P. Pritchard,
    P. Verma, H. F. Schaefer III, K. Patkowski, R. A. King, E. F. Valeev,
    F. A. Evangelista, J. M. Turney, T. D. Crawford, and C. D. Sherrill,
    J. Chem. Theory Comput. 13(7) pp 3185--3197 (2017).
    (doi: 10.1021/acs.jctc.7b00174)


                         Additional Contributions by
    P. Kraus, H. Kruse, M. H. Lechner, M. C. Schieber, and R. A. Shaw

    -----------------------------------------------------------------------


    Psi4 started on: Thursday, 17 January 2019 12:04PM

    Process ID: 9964
    Host:       localhost.localdomain
    PSIDATADIR: /root/psi4conda/share/psi4
    Memory:     500.0 MiB
    Threads:    1
    
  ==> Input File <==

--------------------------------------------------------------------------
molecule{
0 1
C     -0.438042   -0.749370    0.240485
O     -1.507633   -0.532039   -0.482282
H      0.949000   -0.480803    2.265189
H     -0.740047   -0.228826    2.634910
H      0.887008    2.545001   -0.158340
C      1.033221    1.465294   -0.115158
H      1.214003    1.075283   -1.122448
H      1.884810    1.243748    0.528996
O     -0.147300    0.882268    0.456711
H     -1.083671    0.700208   -0.228661
C     -0.045374   -0.836935    2.094047
H     -0.123558   -1.850575    2.427695
H     -0.080062   -1.649127   -0.214691 
}

set{
   basis 6-311++G(d,p)
   freeze_core True
   opt_type ts
}


set_num_threads(32)
optimize('m06-2x')
--------------------------------------------------------------------------
  Threads set to 32 by Python driver.
gradient() will perform analytic gradient computation.

*** tstart() called on localhost.localdomain
*** at Thu Jan 17 12:04:02 2019

   => Loading Basis Set <=

    Name: 6-311++G(D,P)
    Role: ORBITAL
    Keyword: BASIS
    atoms 1, 6, 11            entry C          line   119 file /root/psi4conda/share/psi4/basis/6-311ppg_d_p_.gbs 
    atoms 2, 9                entry O          line   161 file /root/psi4conda/share/psi4/basis/6-311ppg_d_p_.gbs 
    atoms 3-5, 7-8, 10, 12-13 entry H          line    42 file /root/psi4conda/share/psi4/basis/6-311ppg_d_p_.gbs 


         ---------------------------------------------------------
                                   SCF
            by Justin Turney, Rob Parrish, Andy Simmonett
                             and Daniel Smith
                              RKS Reference
                       32 Threads,    500 MiB Core
         ---------------------------------------------------------

  ==> Geometry <==

    Molecular point group: c1
    Full point group: C1

    Geometry (in Angstrom), charge = 0, multiplicity = 1:

       Center              X                  Y                   Z               Mass       
    ------------   -----------------  -----------------  -----------------  -----------------
         C           -0.215266501561    -0.821889210698    -0.185591069313    12.000000000000
         O           -1.284857501561    -0.604558210698    -0.908358069313    15.994914619560
         H            1.171775498439    -0.553322210698     1.839112930687     1.007825032070
         H           -0.517271501561    -0.301345210698     2.208833930687     1.007825032070
         H            1.109783498439     2.472481789302    -0.584416069313     1.007825032070
         C            1.255996498439     1.392774789302    -0.541234069313    12.000000000000
         H            1.436778498439     1.002763789302    -1.548524069313     1.007825032070
         H            2.107585498439     1.171228789302     0.102919930687     1.007825032070
         O            0.075475498439     0.809748789302     0.030634930687    15.994914619560
         H           -0.860895501561     0.627688789302    -0.654737069313     1.007825032070
         C            0.177401498439    -0.909454210698     1.667970930687    12.000000000000
         H            0.099217498439    -1.923094210698     2.001618930687     1.007825032070
         H            0.142713498439    -1.721646210698    -0.640767069313     1.007825032070

  Running in c1 symmetry.

  Rotational constants: A =      0.19164  B =      0.13941  C =      0.09126 [cm^-1]
  Rotational constants: A =   5745.13339  B =   4179.31964  C =   2735.79948 [MHz]
  Nuclear repulsion =  190.873461753007291

  Charge       = 0
  Multiplicity = 1
  Electrons    = 42
  Nalpha       = 21
  Nbeta        = 21

  ==> Algorithm <==

  SCF Algorithm Type is DF.
  DIIS enabled.
  MOM disabled.
  Fractional occupation disabled.
  Guess Type is SAD.
  Energy threshold   = 1.00e-08
  Density threshold  = 1.00e-08
  Integral threshold = 0.00e+00

  ==> Primary Basis <==

  Basis Set: 6-311++G(D,P)
    Blend: 6-311++G(D,P)
    Number of shells: 90
    Number of basis function: 166
    Number of Cartesian functions: 171
    Spherical Harmonics?: true
    Max angular momentum: 2

  ==> DFT Potential <==

   => Composite Functional: M06-2X <= 

    Hybrid M06-2X Meta-GGA XC Functional

    Y. Zhao and D. G. Truhlar,  Theor. Chem. Acc., 120, 215, 2008


    Deriv               =              1
    GGA                 =           TRUE
    Meta                =           TRUE

    Exchange Hybrid     =           TRUE
    MP2 Hybrid          =          FALSE

   => Exchange Functionals <=

    1.0000   XC_HYB_MGGA_X_M06_2X

   => Exact (HF) Exchange <=

    0.5400               HF 

   => Correlation Functionals <=

    1.0000   XC_MGGA_C_M06_2X

   => Molecular Quadrature <=

    Radial Scheme       =       TREUTLER
    Pruning Scheme      =           FLAT
    Nuclear Scheme      =       TREUTLER

    BS radius alpha     =              1
    Pruning alpha       =              1
    Radial Points       =             75
    Spherical Points    =            302
    Total Points        =         294450
    Total Blocks        =           2244
    Max Points          =            256
    Max Functions       =            166

   => Loading Basis Set <=

    Name: (6-311++G(D,P) AUX)
    Role: JKFIT
    Keyword: DF_BASIS_SCF
    atoms 1, 6, 11            entry C          line   162 file /root/psi4conda/share/psi4/basis/aug-cc-pvtz-jkfit.gbs 
    atoms 2, 9                entry O          line   286 file /root/psi4conda/share/psi4/basis/aug-cc-pvtz-jkfit.gbs 
    atoms 3-5, 7-8, 10, 12-13 entry H          line    70 file /root/psi4conda/share/psi4/basis/aug-cc-pvtz-jkfit.gbs 

  ==> Pre-Iterations <==

   -------------------------------------------------------
    Irrep   Nso     Nmo     Nalpha   Nbeta   Ndocc  Nsocc
   -------------------------------------------------------
     A        166     166       0       0       0       0
   -------------------------------------------------------
    Total     166     166      21      21      21       0
   -------------------------------------------------------

  ==> Integral Setup <==

  DFHelper Memory: AOs need 0.239 [GiB]; user supplied 0.366 [GiB]. Using in-core AOs.

  ==> MemDFJK: Density-Fitted J/K Matrices <==

    J tasked:                   Yes
    K tasked:                   Yes
    wK tasked:                   No
    OpenMP threads:              32
    Memory (MB):                375
    Algorithm:                 Core
    Schwarz Cutoff:           1E-12
    Mask sparsity (%):       1.9524
    Fitting Condition:        1E-12

   => Auxiliary Basis Set <=

  Basis Set: (6-311++G(D,P) AUX)
    Blend: AUG-CC-PVTZ-JKFIT
    Number of shells: 262
    Number of basis function: 888
    Number of Cartesian functions: 1095
    Spherical Harmonics?: true
    Max angular momentum: 4

  Minimum eigenvalue in the overlap matrix is 1.5440615898E-04.
  Using Symmetric Orthogonalization.

  SCF Guess: Superposition of Atomic Densities via on-the-fly atomic UHF.

  ==> Iterations <==

                           Total Energy        Delta E     RMS |[F,P]|

   @DF-RKS iter   0:  -270.08429842030409   -2.70084e+02   5.89366e-02 
   @DF-RKS iter   1:  -269.20334931884605    8.80949e-01   1.07303e-02 
   @DF-RKS iter   2:  -269.05968362451193    1.43666e-01   1.64729e-02 DIIS
   @DF-RKS iter   3:  -269.35582778681669   -2.96144e-01   2.10544e-03 DIIS
   @DF-RKS iter   4:  -269.36223517059818   -6.40738e-03   9.26096e-04 DIIS
   @DF-RKS iter   5:  -269.36357764664365   -1.34248e-03   2.20942e-04 DIIS
   @DF-RKS iter   6:  -269.36370704950025   -1.29403e-04   6.70050e-05 DIIS
   @DF-RKS iter   7:  -269.36372047394701   -1.34244e-05   3.18992e-05 DIIS
   @DF-RKS iter   8:  -269.36372218045676   -1.70651e-06   1.74019e-05 DIIS
   @DF-RKS iter   9:  -269.36372265453099   -4.74074e-07   5.14887e-06 DIIS
   @DF-RKS iter  10:  -269.36372272103881   -6.65078e-08   1.36358e-06 DIIS
   @DF-RKS iter  11:  -269.36372272986256   -8.82375e-09   5.14734e-07 DIIS
   @DF-RKS iter  12:  -269.36372273076040   -8.97842e-10   1.20444e-07 DIIS
   @DF-RKS iter  13:  -269.36372273081389   -5.34897e-11   4.09821e-08 DIIS
   @DF-RKS iter  14:  -269.36372273081690   -3.01270e-12   6.45559e-09 DIIS

  ==> Post-Iterations <==

    Orbital Energies [Eh]
    ---------------------

    Doubly Occupied:                                                      

       1A    -19.681054     2A    -19.603366     3A    -10.672735  
       4A    -10.609604     5A    -10.527682     6A     -1.215463  
       7A     -1.114409     8A     -0.817705     9A     -0.784246  
      10A     -0.692257    11A     -0.636044    12A     -0.575329  
      13A     -0.554116    14A     -0.492863    15A     -0.481746  
      16A     -0.466678    17A     -0.456968    18A     -0.445297  
      19A     -0.415099    20A     -0.355825    21A     -0.285693  

    Virtual:                                                              

      22A     -0.007501    23A      0.011475    24A      0.014572  
      25A      0.017396    26A      0.023864    27A      0.041295  
      28A      0.043793    29A      0.050630    30A      0.061844  
      31A      0.073690    32A      0.088788    33A      0.100823  
      34A      0.104803    35A      0.113833    36A      0.115737  
      37A      0.124495    38A      0.129499    39A      0.137604  
      40A      0.147755    41A      0.159669    42A      0.163282  
      43A      0.175829    44A      0.199819    45A      0.200698  
      46A      0.216608    47A      0.226177    48A      0.238811  
      49A      0.248929    50A      0.253560    51A      0.266377  
      52A      0.290987    53A      0.302397    54A      0.315766  
      55A      0.320894    56A      0.331050    57A      0.339986  
      58A      0.351168    59A      0.358891    60A      0.429637  
      61A      0.443839    62A      0.471825    63A      0.490764  
      64A      0.513970    65A      0.517755    66A      0.537627  
      67A      0.573452    68A      0.604873    69A      0.611024  
      70A      0.637331    71A      0.662968    72A      0.676426  
      73A      0.709930    74A      0.712438    75A      0.730931  
      76A      0.743045    77A      0.759820    78A      0.809315  
      79A      0.922123    80A      0.934996    81A      0.995987  
      82A      1.041332    83A      1.051097    84A      1.098087  
      85A      1.106552    86A      1.128534    87A      1.208194  
      88A      1.220138    89A      1.227372    90A      1.301241  
      91A      1.355283    92A      1.381352    93A      1.397088  
      94A      1.437567    95A      1.469535    96A      1.497814  
      97A      1.544064    98A      1.548292    99A      1.577146  
     100A      1.587250   101A      1.626036   102A      1.643172  
     103A      1.661161   104A      1.710294   105A      1.726537  
     106A      1.733011   107A      1.741596   108A      1.752491  
     109A      1.806639   110A      1.856141   111A      1.885081  
     112A      1.907788   113A      1.966141   114A      2.014360  
     115A      2.067406   116A      2.086631   117A      2.110459  
     118A      2.172455   119A      2.238200   120A      2.269570  
     121A      2.309603   122A      2.452327   123A      2.481900  
     124A      2.514120   125A      2.527048   126A      2.544746  
     127A      2.565360   128A      2.582317   129A      2.605418  
     130A      2.625097   131A      2.648273   132A      2.680504  
     133A      2.700231   134A      2.735752   135A      2.755247  
     136A      2.848572   137A      2.911588   138A      2.921064  
     139A      2.980105   140A      3.024673   141A      3.109367  
     142A      3.182226   143A      3.189033   144A      3.278105  
     145A      3.405564   146A      3.532167   147A      3.609317  
     148A      3.713703   149A      3.818152   150A      3.826955  
     151A      3.844089   152A      3.861548   153A      3.920247  
     154A      4.055889   155A      4.091358   156A      5.202117  
     157A      5.229630   158A      5.311069   159A      5.321068  
     160A      5.614153   161A      5.686232   162A     23.823178  
     163A     23.969845   164A     24.079788   165A     49.985494  
     166A     50.048907  

    Final Occupation by Irrep:
              A 
    DOCC [    21 ]

  Energy converged.

  @DF-RKS Final Energy:  -269.36372273081690

   => Energetics <=

    Nuclear Repulsion Energy =            190.8734617530072910
    One-Electron Energy =                -744.2958100462291213
    Two-Electron Energy =                 301.5498808702649285
    DFT Exchange-Correlation Energy =     -17.4912553078600190
    Empirical Dispersion Energy =           0.0000000000000000
    VV10 Nonlocal Energy =                  0.0000000000000000
    Total Energy =                       -269.3637227308169031



Properties will be evaluated at   0.000000,   0.000000,   0.000000 [a0]

Properties computed using the SCF density matrix

  Nuclear Dipole Moment: [e a0]
     X:     4.3906      Y:     0.7273      Z:     2.5495

  Electronic Dipole Moment: [e a0]
     X:    -3.1171      Y:    -0.1393      Z:    -2.5542

  Dipole Moment: [e a0]
     X:     1.2736      Y:     0.5880      Z:    -0.0047     Total:     1.4027

  Dipole Moment: [D]
     X:     3.2371      Y:     1.4945      Z:    -0.0120     Total:     3.5654


*** tstop() called on localhost.localdomain at Thu Jan 17 12:04:17 2019
Module time:
	user time   =     377.55 seconds =       6.29 minutes
	system time =      19.59 seconds =       0.33 minutes
	total time  =         15 seconds =       0.25 minutes
Total time:
	user time   =     377.55 seconds =       6.29 minutes
	system time =      19.59 seconds =       0.33 minutes
	total time  =         15 seconds =       0.25 minutes

*** tstart() called on localhost.localdomain
*** at Thu Jan 17 12:04:17 2019


         ------------------------------------------------------------
                                   SCF GRAD                          
                          Rob Parrish, Justin Turney,                
                       Andy Simmonett, and Alex Sokolov              
         ------------------------------------------------------------

  ==> Geometry <==

    Molecular point group: c1
    Full point group: C1

    Geometry (in Angstrom), charge = 0, multiplicity = 1:

       Center              X                  Y                   Z               Mass       
    ------------   -----------------  -----------------  -----------------  -----------------
         C           -0.215266501561    -0.821889210698    -0.185591069313    12.000000000000
         O           -1.284857501561    -0.604558210698    -0.908358069313    15.994914619560
         H            1.171775498439    -0.553322210698     1.839112930687     1.007825032070
         H           -0.517271501561    -0.301345210698     2.208833930687     1.007825032070
         H            1.109783498439     2.472481789302    -0.584416069313     1.007825032070
         C            1.255996498439     1.392774789302    -0.541234069313    12.000000000000
         H            1.436778498439     1.002763789302    -1.548524069313     1.007825032070
         H            2.107585498439     1.171228789302     0.102919930687     1.007825032070
         O            0.075475498439     0.809748789302     0.030634930687    15.994914619560
         H           -0.860895501561     0.627688789302    -0.654737069313     1.007825032070
         C            0.177401498439    -0.909454210698     1.667970930687    12.000000000000
         H            0.099217498439    -1.923094210698     2.001618930687     1.007825032070
         H            0.142713498439    -1.721646210698    -0.640767069313     1.007825032070

  Nuclear repulsion =  190.873461753007291

  ==> Basis Set <==

  Basis Set: 6-311++G(D,P)
    Blend: 6-311++G(D,P)
    Number of shells: 90
    Number of basis function: 166
    Number of Cartesian functions: 171
    Spherical Harmonics?: true
    Max angular momentum: 2

  ==> DFJKGrad: Density-Fitted SCF Gradients <==

    Gradient:                    1
    J tasked:                  Yes
    K tasked:                  Yes
    wK tasked:                  No
    OpenMP threads:             32
    Integrals threads:          32
    Memory (MB):               375
    Schwarz Cutoff:          0E+00
    Fitting Condition:       1E-12

   => Auxiliary Basis Set <=

  Basis Set: (6-311++G(D,P) AUX)
    Blend: AUG-CC-PVTZ-JKFIT
    Number of shells: 262
    Number of basis function: 888
    Number of Cartesian functions: 1095
    Spherical Harmonics?: true
    Max angular momentum: 4

  ==> DFT Potential <==

   => Composite Functional: M06-2X <= 

    Hybrid M06-2X Meta-GGA XC Functional

    Y. Zhao and D. G. Truhlar,  Theor. Chem. Acc., 120, 215, 2008


    Deriv               =              1
    GGA                 =           TRUE
    Meta                =           TRUE

    Exchange Hybrid     =           TRUE
    MP2 Hybrid          =          FALSE

   => Exchange Functionals <=

    1.0000   XC_HYB_MGGA_X_M06_2X

   => Exact (HF) Exchange <=

    0.5400               HF 

   => Correlation Functionals <=

    1.0000   XC_MGGA_C_M06_2X

   => Molecular Quadrature <=

    Radial Scheme       =       TREUTLER
    Pruning Scheme      =           FLAT
    Nuclear Scheme      =       TREUTLER

    BS radius alpha     =              1
    Pruning alpha       =              1
    Radial Points       =             75
    Spherical Points    =            302
    Total Points        =         294450
    Total Blocks        =           2244
    Max Points          =            256
    Max Functions       =            166


  -Total Gradient:
     Atom            X                  Y                   Z
    ------   -----------------  -----------------  -----------------
       1        0.034163283297     0.010635371705    -0.075251794532
       2       -0.001956114666    -0.025809541487    -0.028503415033
       3       -0.013781345643    -0.005949341261     0.007808168976
       4        0.010053641149    -0.008658921991    -0.002222352553
       5       -0.000978447850     0.000132838768     0.000022188602
       6        0.005758523012    -0.002982500847     0.001813184600
       7        0.000607883290    -0.000418325171    -0.001283897397
       8        0.001115573370     0.001166909492    -0.000537633338
       9       -0.018894150915    -0.005044181123     0.042773025348
      10        0.002372032272     0.001252327449    -0.006061215749
      11        0.034340387916     0.016488193698     0.056872187939
      12        0.001403742530     0.015150155005    -0.002727857698
      13       -0.053958047925     0.004297481045     0.007384431566


*** tstop() called on localhost.localdomain at Thu Jan 17 12:04:23 2019
Module time:
	user time   =      98.18 seconds =       1.64 minutes
	system time =       5.50 seconds =       0.09 minutes
	total time  =          6 seconds =       0.10 minutes
Total time:
	user time   =     475.80 seconds =       7.93 minutes
	system time =      25.09 seconds =       0.42 minutes
	total time  =         21 seconds =       0.35 minutes

			-----------------------------------------
			 OPTKING 2.0: for geometry optimizations 
			  - R.A. King,  Bethel University        
			-----------------------------------------

	Internal coordinates to be generated automatically.
	Detected frag 1 with atoms:  1 2 3 4 5 6 7 8 9 10 11 12 13
	---Fragment 1 Bond Connectivity---
	 1 : 2 9 11 13
	 2 : 1
	 3 : 11
	 4 : 11
	 5 : 6
	 6 : 5 7 8 9
	 7 : 6
	 8 : 6
	 9 : 1 6 10
	 10 : 9
	 11 : 1 3 4 12
	 12 : 11
	 13 : 1

	---Fragment 1 Geometry and Gradient---
	 C          -0.4067947335       -1.5531455198       -0.3507162937
	 O          -2.4280287977       -1.1424494496       -1.7165479816
	 H           2.2143347813       -1.0456274415        3.4754197664
	 H          -0.9775014743       -0.5694599197        4.1740912020
	 H           2.0971868788        4.6723134503       -1.1043863187
	 C           2.3734894059        2.6319629166       -1.0227841648
	 H           2.7151178757        1.8949489378       -2.9262864012
	 H           3.9827593937        2.2133016507        0.1944904826
	 O           0.1426280218        1.5302034482        0.0578916291
	 H          -1.6268567270        1.1861599085       -1.2372737500
	 C           0.3352402476       -1.7186193886        3.1520082566
	 H           0.1874938996       -3.6341213860        3.7825116014
	 H           0.2696894275       -3.2534398359       -1.2108742760
	             0.0341632833        0.0106353717       -0.0752517945
	            -0.0019561147       -0.0258095415       -0.0285034150
	            -0.0137813456       -0.0059493413        0.0078081690
	             0.0100536411       -0.0086589220       -0.0022223526
	            -0.0009784479        0.0001328388        0.0000221886
	             0.0057585230       -0.0029825008        0.0018131846
	             0.0006078833       -0.0004183252       -0.0012838974
	             0.0011155734        0.0011669095       -0.0005376333
	            -0.0188941509       -0.0050441811        0.0427730253
	             0.0023720323        0.0012523274       -0.0060612157
	             0.0343403879        0.0164881937        0.0568721879
	             0.0014037425        0.0151501550       -0.0027278577
	            -0.0539580479        0.0042974810        0.0073844316

	Previous optimization step data not found.  Starting new optimization.

	---Fragment 1 Intrafragment Coordinates---
	 - Coordinate -           - BOHR/RAD -       - ANG/DEG -
	 H(2,10)          =         2.508785	       1.327592
	 R(1,2)           =         2.473773	       1.309064
	 R(1,9)           =         3.158460	       1.671385
	 R(1,11)          =         3.584282	       1.896720
	 R(1,13)          =         2.022005	       1.069999
	 R(3,11)          =         2.022006	       1.070000
	 R(4,11)          =         2.022007	       1.070000
	 R(5,6)           =         2.060590	       1.090417
	 R(6,7)           =         2.069594	       1.095182
	 R(6,8)           =         2.060773	       1.090514
	 R(6,9)           =         2.712651	       1.435473
	 R(9,10)          =         2.219661	       1.174594
	 R(11,12)         =         2.022007	       1.070000
	 B(1,9,6)         =         2.080611	     119.210256
	 B(1,9,10)        =         1.196657	      68.563383
	 B(1,11,3)        =         1.910633	     109.471214
	 B(1,11,4)        =         1.910634	     109.471260
	 B(1,11,12)       =         1.910633	     109.471204
	 B(2,1,9)         =         1.622306	      92.951280
	 B(2,1,11)        =         2.369395	     135.756324
	 B(2,1,13)        =         1.749842	     100.258564
	 B(3,11,4)        =         1.910633	     109.471227
	 B(3,11,12)       =         1.910633	     109.471190
	 B(4,11,12)       =         1.910633	     109.471229
	 B(5,6,7)         =         1.915936	     109.775054
	 B(5,6,8)         =         1.906321	     109.224165
	 B(5,6,9)         =         1.883539	     107.918836
	 B(6,9,10)        =         2.078415	     119.084409
	 B(7,6,8)         =         1.919875	     110.000713
	 B(7,6,9)         =         1.936414	     110.948339
	 B(8,6,9)         =         1.901149	     108.927795
	 B(9,1,11)        =         1.453156	      83.259684
	 B(9,1,13)        =         2.528259	     144.858587
	 B(11,1,13)       =         1.883503	     107.916784
	 D(1,9,6,5)       =         2.820439	     161.599226
	 D(1,9,6,7)       =         0.720803	      41.298965
	 D(1,9,6,8)       =        -1.395035	     -79.929629
	 D(2,1,9,6)       =        -1.995825	    -114.352366
	 D(2,1,9,10)      =        -0.036551	      -2.094218
	 D(2,1,11,3)      =        -2.570936	    -147.303789
	 D(2,1,11,4)      =        -0.476541	     -27.303761
	 D(2,1,11,12)     =         1.617855	      92.696263
	 D(3,11,1,9)      =        -1.047198	     -60.000043
	 D(3,11,1,13)     =         1.497671	      85.810252
	 D(4,11,1,9)      =         1.047197	      59.999985
	 D(4,11,1,13)     =        -2.691118	    -154.189720
	 D(5,6,9,10)      =         1.418579	      81.278577
	 D(6,9,1,11)      =         1.918179	     109.903564
	 D(6,9,1,13)      =        -0.031927	      -1.829274
	 D(7,6,9,10)      =        -0.681057	     -39.021684
	 D(8,6,9,10)      =        -2.796895	    -160.250278
	 D(9,1,11,12)     =         3.141593	     180.000000
	 D(10,9,1,11)     =        -2.405732	    -137.838288
	 D(10,9,1,13)     =         1.927347	     110.428874
	 D(12,11,1,13)    =        -0.596723	     -34.189696

	Current energy   :      -269.3637227308

	Generating empirical Hessian (Schlegel '84) for each fragment.
	Taking PRFO optimization step.
	Maximizing along 1 lowest eigenvalue of Hessian.

 RFO min eigenvalues
 -0.072343 -0.000000 -0.000000 -0.000000 -0.000000 -0.000000 -0.000000 -0.000000
 -0.000000 -0.000000 -0.000000 -0.000000 -0.000000 -0.000000  0.000000  0.000000
  0.000000  0.000000  0.000000  0.000000  0.000000  0.000000  0.000258  0.002300
  0.002820  0.031281  0.036533  0.038463  0.057152  0.057188  0.060904  0.069807
  0.073411  0.083608  0.118599  0.136152  0.150758  0.160000  0.160000  0.160000
  0.160000  0.160000  0.163903  0.217981  0.236097  0.264281  0.342213  0.347533
  0.347645  0.372301  0.372301  0.372302  0.376095  0.402191  0.643641

 RFO max eigenvalues
 -0.000000  0.000000
	Change in coordinate exceeds step limit of    0.50000.
	Scaling displacements by    0.53164
	|RFO target step|  :        0.5000000000
	RFO gradient       :       -0.0769209762
	RFO hessian        :        0.0513826228
	Projected Delta(E) :       -0.0256301282

	Back-transformation to cartesian coordinates...
	Could not converge backtransformation.
	Using first guess instead.

	--- Internal Coordinate Step in ANG or DEG, aJ/ANG or AJ/DEG ---
	 ---------------------------------------------------------------------------
	   Coordinate                Previous        Force       Change         New 
	   ----------                --------       ------       ------       ------
	    1 H(2,10)         =      1.327592    -0.125271    -0.019097     1.308494
	    2 R(1,2)          =      1.309064    -0.081039    -0.003811     1.305253
	    3 R(1,9)          =      1.671385     0.147284     0.013597     1.684982
	    4 R(1,11)         =      1.896720    -0.528844    -0.094704     1.802016
	    5 R(1,13)         =      1.069999     0.204274     0.020756     1.090755
	    6 R(3,11)         =      1.070000     0.111620     0.009198     1.079198
	    7 R(4,11)         =      1.070000     0.103712     0.009374     1.079374
	    8 R(5,6)          =      1.090417    -0.002079     0.000308     1.090725
	    9 R(6,7)          =      1.095182    -0.011875     0.000305     1.095487
	   10 R(6,8)          =      1.090514    -0.002365     0.000419     1.090933
	   11 R(6,9)          =      1.435473    -0.036084    -0.000768     1.434705
	   12 R(9,10)         =      1.174594    -0.076032    -0.003126     1.171468
	   13 R(11,12)        =      1.070000     0.125925     0.011368     1.081367
	   14 B(1,9,6)        =    119.210256    -0.000026     0.480751   119.691007
	   15 B(1,9,10)       =     68.563383     0.000729     0.859919    69.423302
	   16 B(1,11,3)       =    109.471214    -0.001039    -2.103790   107.367424
	   17 B(1,11,4)       =    109.471260    -0.000312    -0.374477   109.096783
	   18 B(1,11,12)      =    109.471204     0.000039     0.232048   109.703252
	   19 B(2,1,9)        =     92.951280    -0.001705    -2.164516    90.786764
	   20 B(2,1,11)       =    135.756324    -0.001828    -3.661766   132.094557
	   21 B(2,1,13)       =    100.258564     0.002606     4.482103   104.740666
	   22 B(3,11,4)       =    109.471227     0.000576     0.868320   110.339547
	   23 B(3,11,12)      =    109.471190     0.000463     0.817544   110.288734
	   24 B(4,11,12)      =    109.471229     0.000272     0.525422   109.996651
	   25 B(5,6,7)        =    109.775054    -0.000012     0.004785   109.779839
	   26 B(5,6,8)        =    109.224165     0.000028    -0.004947   109.219217
	   27 B(5,6,9)        =    107.918836     0.000150     0.333503   108.252339
	   28 B(6,9,10)       =    119.084409    -0.000277     0.012319   119.096728
	   29 B(7,6,8)        =    110.000713     0.000062     0.108031   110.108744
	   30 B(7,6,9)        =    110.948339    -0.000024    -0.054186   110.894153
	   31 B(8,6,9)        =    108.927795    -0.000202    -0.386697   108.541099
	   32 B(9,1,11)       =     83.259684     0.003672     6.187379    89.447063
	   33 B(9,1,13)       =    144.858587    -0.003084    -7.221995   137.636591
	   34 B(11,1,13)      =    107.916784    -0.001368    -1.082569   106.834215
	   35 D(1,9,6,5)      =    161.599226     0.000097     0.848735   162.447961
	   36 D(1,9,6,7)      =     41.298965     0.000082     0.663834    41.962798
	   37 D(1,9,6,8)      =    -79.929629     0.000099     0.815795   -79.113834
	   38 D(2,1,9,6)      =   -114.352366    -0.000100    -0.126972  -114.479338
	   39 D(2,1,9,10)     =     -2.094218    -0.000099     0.188656    -1.905562
	   40 D(2,1,11,3)     =   -147.303789    -0.000076    -0.258028  -147.561817
	   41 D(2,1,11,4)     =    -27.303761    -0.000104    -0.675475   -27.979235
	   42 D(2,1,11,12)    =     92.696263    -0.000065    -0.120052    92.576211
	   43 D(3,11,1,9)     =    -60.000043     0.000300     2.998986   -57.001057
	   44 D(3,11,1,13)    =     85.810252    -0.000212    -2.539692    83.270561
	   45 D(4,11,1,9)     =     59.999985     0.000272     2.581539    62.581525
	   46 D(4,11,1,13)    =   -154.189720    -0.000240    -2.957138  -157.146857
	   47 D(5,6,9,10)     =     81.278577    -0.000077    -0.453166    80.825411
	   48 D(6,9,1,11)     =    109.903564     0.000317     3.525483   113.429046
	   49 D(6,9,1,13)     =     -1.829274    -0.000059     0.472711    -1.356562
	   50 D(7,6,9,10)     =    -39.021684    -0.000092    -0.638067   -39.659752
	   51 D(8,6,9,10)     =   -160.250278    -0.000075    -0.486106  -160.736384
	   52 D(9,1,11,12)    =    180.000000     0.000311     3.136971   183.136971
	   53 D(10,9,1,11)    =   -137.838288     0.000318     3.841111  -133.997177
	   54 D(10,9,1,13)    =    110.428874    -0.000057     0.788340   111.217214
	   55 D(12,11,1,13)   =    -34.189696    -0.000202    -2.401715   -36.591411
	 ---------------------------------------------------------------------------
	Successfully symmetrized geometry.

  ==> Convergence Check <==

  Measures of convergence in internal coordinates in au.
  Criteria marked as inactive (o), active & met (*), and active & unmet ( ).
  --------------------------------------------------------------------------------------------- ~
   Step     Total Energy     Delta E     MAX Force     RMS Force      MAX Disp      RMS Disp    ~
  --------------------------------------------------------------------------------------------- ~
    Convergence Criteria    1.00e-06 *    3.00e-04 *             o    1.20e-03 *             o  ~
  --------------------------------------------------------------------------------------------- ~
      1    -269.36372273   -2.69e+02      6.42e-02      1.67e-02 o    1.79e-01      4.31e-02 o  ~
  ---------------------------------------------------------------------------------------------

	Writing optimization data to binary file.
	Structure for next step:
	Cartesian Geometry (in Angstrom)
	    C    -0.1814031855  -0.7989472294  -0.0968672742
	    O    -1.2674449427  -0.5693607115  -0.7835177520
	    H     1.1055314782  -0.5884182557   1.8709752823
	    H    -0.6226651297  -0.3962463387   2.2114078380
	    H     1.1258106886   2.4982479057  -0.6829656957
	    C     1.2707018022   1.4198200293  -0.6075927704
	    H     1.4130759350   0.9941574367  -1.6069085740
	    H     2.1439275894   1.2173878342   0.0142050747
	    O     0.1160801182   0.8547437340   0.0295219748
	    H    -0.8467623460   0.6571465463  -0.6078374438
	    C     0.1157601123  -0.9698949957   1.6722375445
	    H     0.0521000802  -2.0120774440   1.9535891857
	    H     0.2737242795  -1.6651812502  -0.5787832910
			--------------------------
			 OPTKING Finished Execution 
			--------------------------

    Structure for next step:
    Molecular point group: c1
    Full point group: C1

    Geometry (in Angstrom), charge = 0, multiplicity = 1:

    C           -0.190946740215    -0.813239263850    -0.125098501705
    O           -1.276988497369    -0.583652745885    -0.811748979538
    H            1.095987923520    -0.602710290164     1.842744054715
    H           -0.632208684328    -0.410538373091     2.183176610425
    H            1.116267133958     2.483955871259    -0.711196923201
    C            1.261158247577     1.405527994911    -0.635823997984
    H            1.403532380332     0.979865402271    -1.635139801575
    H            2.134384034683     1.203095799794    -0.014026152851
    O            0.106536563493     0.840451699546     0.001290747216
    H           -0.856305900702     0.642854511870    -0.636068671298
    C            0.106216557654    -0.984187030082     1.644006317005
    H            0.042556525518    -2.026369478443     1.925357958197
    H            0.264180724840    -1.679473284633    -0.607014518542

gradient() will perform analytic gradient computation.

*** tstart() called on localhost.localdomain
*** at Thu Jan 17 12:04:23 2019

   => Loading Basis Set <=

    Name: 6-311++G(D,P)
    Role: ORBITAL
    Keyword: BASIS
    atoms 1, 6, 11            entry C          line   119 file /root/psi4conda/share/psi4/basis/6-311ppg_d_p_.gbs 
    atoms 2, 9                entry O          line   161 file /root/psi4conda/share/psi4/basis/6-311ppg_d_p_.gbs 
    atoms 3-5, 7-8, 10, 12-13 entry H          line    42 file /root/psi4conda/share/psi4/basis/6-311ppg_d_p_.gbs 


         ---------------------------------------------------------
                                   SCF
            by Justin Turney, Rob Parrish, Andy Simmonett
                             and Daniel Smith
                              RKS Reference
                       32 Threads,    500 MiB Core
         ---------------------------------------------------------

  ==> Geometry <==

    Molecular point group: c1
    Full point group: C1

    Geometry (in Angstrom), charge = 0, multiplicity = 1:

       Center              X                  Y                   Z               Mass       
    ------------   -----------------  -----------------  -----------------  -----------------
         C           -0.190946740215    -0.813239263850    -0.125098501705    12.000000000000
         O           -1.276988497369    -0.583652745885    -0.811748979538    15.994914619560
         H            1.095987923520    -0.602710290164     1.842744054715     1.007825032070
         H           -0.632208684328    -0.410538373091     2.183176610425     1.007825032070
         H            1.116267133958     2.483955871259    -0.711196923201     1.007825032070
         C            1.261158247577     1.405527994911    -0.635823997984    12.000000000000
         H            1.403532380332     0.979865402271    -1.635139801575     1.007825032070
         H            2.134384034683     1.203095799794    -0.014026152851     1.007825032070
         O            0.106536563493     0.840451699546     0.001290747216    15.994914619560
         H           -0.856305900702     0.642854511870    -0.636068671298     1.007825032070
         C            0.106216557654    -0.984187030082     1.644006317005    12.000000000000
         H            0.042556525518    -2.026369478443     1.925357958197     1.007825032070
         H            0.264180724840    -1.679473284633    -0.607014518542     1.007825032070

  Running in c1 symmetry.

  Rotational constants: A =      0.20940  B =      0.13116  C =      0.09141 [cm^-1]
  Rotational constants: A =   6277.63313  B =   3932.10211  C =   2740.27509 [MHz]
  Nuclear repulsion =  191.266419981345848

  Charge       = 0
  Multiplicity = 1
  Electrons    = 42
  Nalpha       = 21
  Nbeta        = 21

  ==> Algorithm <==

  SCF Algorithm Type is DF.
  DIIS enabled.
  MOM disabled.
  Fractional occupation disabled.
  Guess Type is READ.
  Energy threshold   = 1.00e-08
  Density threshold  = 1.00e-08
  Integral threshold = 0.00e+00

  ==> Primary Basis <==

  Basis Set: 6-311++G(D,P)
    Blend: 6-311++G(D,P)
    Number of shells: 90
    Number of basis function: 166
    Number of Cartesian functions: 171
    Spherical Harmonics?: true
    Max angular momentum: 2

  ==> DFT Potential <==

   => Composite Functional: M06-2X <= 

    Hybrid M06-2X Meta-GGA XC Functional

    Y. Zhao and D. G. Truhlar,  Theor. Chem. Acc., 120, 215, 2008


    Deriv               =              1
    GGA                 =           TRUE
    Meta                =           TRUE

    Exchange Hybrid     =           TRUE
    MP2 Hybrid          =          FALSE

   => Exchange Functionals <=

    1.0000   XC_HYB_MGGA_X_M06_2X

   => Exact (HF) Exchange <=

    0.5400               HF 

   => Correlation Functionals <=

    1.0000   XC_MGGA_C_M06_2X

   => Molecular Quadrature <=

    Radial Scheme       =       TREUTLER
    Pruning Scheme      =           FLAT
    Nuclear Scheme      =       TREUTLER

    BS radius alpha     =              1
    Pruning alpha       =              1
    Radial Points       =             75
    Spherical Points    =            302
    Total Points        =         294450
    Total Blocks        =           2261
    Max Points          =            256
    Max Functions       =            165

   => Loading Basis Set <=

    Name: (6-311++G(D,P) AUX)
    Role: JKFIT
    Keyword: DF_BASIS_SCF
    atoms 1, 6, 11            entry C          line   162 file /root/psi4conda/share/psi4/basis/aug-cc-pvtz-jkfit.gbs 
    atoms 2, 9                entry O          line   286 file /root/psi4conda/share/psi4/basis/aug-cc-pvtz-jkfit.gbs 
    atoms 3-5, 7-8, 10, 12-13 entry H          line    70 file /root/psi4conda/share/psi4/basis/aug-cc-pvtz-jkfit.gbs 

  Reading orbitals from file 180, no projection.

  ==> Pre-Iterations <==

   -------------------------------------------------------
    Irrep   Nso     Nmo     Nalpha   Nbeta   Ndocc  Nsocc
   -------------------------------------------------------
     A        166     166       0       0       0       0
   -------------------------------------------------------
    Total     166     166      21      21      21       0
   -------------------------------------------------------

  ==> Integral Setup <==

  DFHelper Memory: AOs need 0.238 [GiB]; user supplied 0.366 [GiB]. Using in-core AOs.

  ==> MemDFJK: Density-Fitted J/K Matrices <==

    J tasked:                   Yes
    K tasked:                   Yes
    wK tasked:                   No
    OpenMP threads:              32
    Memory (MB):                375
    Algorithm:                 Core
    Schwarz Cutoff:           1E-12
    Mask sparsity (%):       2.0395
    Fitting Condition:        1E-12

   => Auxiliary Basis Set <=

  Basis Set: (6-311++G(D,P) AUX)
    Blend: AUG-CC-PVTZ-JKFIT
    Number of shells: 262
    Number of basis function: 888
    Number of Cartesian functions: 1095
    Spherical Harmonics?: true
    Max angular momentum: 4

  Minimum eigenvalue in the overlap matrix is 1.2454690883E-04.
  Using Symmetric Orthogonalization.

  SCF Guess: Orbitals guess was supplied from a previous computation.

  ==> Iterations <==

                           Total Energy        Delta E     RMS |[F,P]|

   @DF-RKS iter   0:  -269.42450447143875   -2.69425e+02   3.88843e-03 
   @DF-RKS iter   1:  -269.39566662899034    2.88378e-02   1.06650e-03 
   @DF-RKS iter   2:  -269.39547661432408    1.90015e-04   1.66379e-03 DIIS
   @DF-RKS iter   3:  -269.39765807788399   -2.18146e-03   3.34478e-04 DIIS
   @DF-RKS iter   4:  -269.39772322822603   -6.51503e-05   8.05977e-05 DIIS
   @DF-RKS iter   5:  -269.39773222027208   -8.99205e-06   4.34720e-05 DIIS
   @DF-RKS iter   6:  -269.39773409019347   -1.86992e-06   1.37689e-05 DIIS
   @DF-RKS iter   7:  -269.39773441082258   -3.20629e-07   2.50939e-06 DIIS
   @DF-RKS iter   8:  -269.39773445703929   -4.62167e-08   1.81524e-06 DIIS
   @DF-RKS iter   9:  -269.39773446496235   -7.92306e-09   6.08223e-07 DIIS
   @DF-RKS iter  10:  -269.39773446546405   -5.01700e-10   2.24549e-07 DIIS
   @DF-RKS iter  11:  -269.39773446550964   -4.55884e-11   3.80074e-08 DIIS
   @DF-RKS iter  12:  -269.39773446551453   -4.88853e-12   9.97967e-09 DIIS

  ==> Post-Iterations <==

    Orbital Energies [Eh]
    ---------------------

    Doubly Occupied:                                                      

       1A    -19.676375     2A    -19.592844     3A    -10.669553  
       4A    -10.607311     5A    -10.533893     6A     -1.211210  
       7A     -1.107697     8A     -0.815551     9A     -0.791805  
      10A     -0.686527    11A     -0.629249    12A     -0.571535  
      13A     -0.550885    14A     -0.499682    15A     -0.478894  
      16A     -0.470588    17A     -0.454740    18A     -0.443269  
      19A     -0.417128    20A     -0.348933    21A     -0.296618  

    Virtual:                                                              

      22A     -0.007183    23A      0.011346    24A      0.015455  
      25A      0.019873    26A      0.028640    27A      0.041237  
      28A      0.043750    29A      0.051190    30A      0.061797  
      31A      0.072529    32A      0.090768    33A      0.101762  
      34A      0.105244    35A      0.116719    36A      0.120286  
      37A      0.124417    38A      0.135877    39A      0.138640  
      40A      0.147640    41A      0.158649    42A      0.161648  
      43A      0.190811    44A      0.202677    45A      0.203411  
      46A      0.216405    47A      0.225401    48A      0.237928  
      49A      0.246141    50A      0.251780    51A      0.270163  
      52A      0.293595    53A      0.303451    54A      0.315097  
      55A      0.317526    56A      0.330307    57A      0.342905  
      58A      0.350307    59A      0.362952    60A      0.431502  
      61A      0.441800    62A      0.476354    63A      0.485414  
      64A      0.510360    65A      0.520734    66A      0.543654  
      67A      0.567772    68A      0.596352    69A      0.611420  
      70A      0.640764    71A      0.661858    72A      0.674487  
      73A      0.703303    74A      0.707513    75A      0.730304  
      76A      0.741760    77A      0.752441    78A      0.793499  
      79A      0.909529    80A      0.937644    81A      1.002093  
      82A      1.037622    83A      1.049527    84A      1.084878  
      85A      1.102067    86A      1.141158    87A      1.214766  
      88A      1.233360    89A      1.249802    90A      1.331861  
      91A      1.363639    92A      1.409160    93A      1.413734  
      94A      1.443147    95A      1.471029    96A      1.495380  
      97A      1.534272    98A      1.556419    99A      1.583451  
     100A      1.586333   101A      1.616941   102A      1.626884  
     103A      1.658319   104A      1.700780   105A      1.721873  
     106A      1.735577   107A      1.738609   108A      1.757267  
     109A      1.806358   110A      1.860599   111A      1.882593  
     112A      1.907976   113A      1.943707   114A      2.013329  
     115A      2.063736   116A      2.078476   117A      2.101888  
     118A      2.173052   119A      2.244181   120A      2.271715  
     121A      2.316937   122A      2.452034   123A      2.484050  
     124A      2.512538   125A      2.523972   126A      2.541803  
     127A      2.548202   128A      2.580971   129A      2.597464  
     130A      2.616638   131A      2.627609   132A      2.670531  
     133A      2.709084   134A      2.753156   135A      2.755810  
     136A      2.852159   137A      2.917257   138A      2.925674  
     139A      2.984323   140A      3.019254   141A      3.114728  
     142A      3.185163   143A      3.228455   144A      3.255722  
     145A      3.414700   146A      3.575775   147A      3.705835  
     148A      3.719807   149A      3.809680   150A      3.826507  
     151A      3.838126   152A      3.861029   153A      3.926582  
     154A      4.065234   155A      4.106547   156A      5.205606  
     157A      5.247955   158A      5.309349   159A      5.330315  
     160A      5.622312   161A      5.706932   162A     23.804361  
     163A     23.969626   164A     24.046337   165A     49.988198  
     166A     50.066887  

    Final Occupation by Irrep:
              A 
    DOCC [    21 ]

  Energy converged.

  @DF-RKS Final Energy:  -269.39773446551453

   => Energetics <=

    Nuclear Repulsion Energy =            191.2664199813458481
    One-Electron Energy =                -745.2091208061281122
    Two-Electron Energy =                 302.0367790210774501
    DFT Exchange-Correlation Energy =     -17.4918126618097034
    Empirical Dispersion Energy =           0.0000000000000000
    VV10 Nonlocal Energy =                  0.0000000000000000
    Total Energy =                       -269.3977344655145316



Properties will be evaluated at   0.000000,   0.000000,   0.000000 [a0]

Properties computed using the SCF density matrix

  Nuclear Dipole Moment: [e a0]
     X:     4.2771      Y:     0.5550      Z:     2.1971

  Electronic Dipole Moment: [e a0]
     X:    -2.9746      Y:    -0.0465      Z:    -2.1620

  Dipole Moment: [e a0]
     X:     1.3025      Y:     0.5084      Z:     0.0351     Total:     1.3986

  Dipole Moment: [D]
     X:     3.3106      Y:     1.2923      Z:     0.0893     Total:     3.5550


*** tstop() called on localhost.localdomain at Thu Jan 17 12:04:37 2019
Module time:
	user time   =     343.59 seconds =       5.73 minutes
	system time =      11.46 seconds =       0.19 minutes
	total time  =         14 seconds =       0.23 minutes
Total time:
	user time   =     824.07 seconds =      13.73 minutes
	system time =      36.67 seconds =       0.61 minutes
	total time  =         35 seconds =       0.58 minutes

*** tstart() called on localhost.localdomain
*** at Thu Jan 17 12:04:37 2019


         ------------------------------------------------------------
                                   SCF GRAD                          
                          Rob Parrish, Justin Turney,                
                       Andy Simmonett, and Alex Sokolov              
         ------------------------------------------------------------

  ==> Geometry <==

    Molecular point group: c1
    Full point group: C1

    Geometry (in Angstrom), charge = 0, multiplicity = 1:

       Center              X                  Y                   Z               Mass       
    ------------   -----------------  -----------------  -----------------  -----------------
         C           -0.190946740215    -0.813239263850    -0.125098501705    12.000000000000
         O           -1.276988497369    -0.583652745885    -0.811748979538    15.994914619560
         H            1.095987923520    -0.602710290164     1.842744054715     1.007825032070
         H           -0.632208684328    -0.410538373091     2.183176610425     1.007825032070
         H            1.116267133958     2.483955871259    -0.711196923201     1.007825032070
         C            1.261158247577     1.405527994911    -0.635823997984    12.000000000000
         H            1.403532380332     0.979865402271    -1.635139801575     1.007825032070
         H            2.134384034683     1.203095799794    -0.014026152851     1.007825032070
         O            0.106536563493     0.840451699546     0.001290747216    15.994914619560
         H           -0.856305900702     0.642854511870    -0.636068671298     1.007825032070
         C            0.106216557654    -0.984187030082     1.644006317005    12.000000000000
         H            0.042556525518    -2.026369478443     1.925357958197     1.007825032070
         H            0.264180724840    -1.679473284633    -0.607014518542     1.007825032070

  Nuclear repulsion =  191.266419981345848

  ==> Basis Set <==

  Basis Set: 6-311++G(D,P)
    Blend: 6-311++G(D,P)
    Number of shells: 90
    Number of basis function: 166
    Number of Cartesian functions: 171
    Spherical Harmonics?: true
    Max angular momentum: 2

  ==> DFJKGrad: Density-Fitted SCF Gradients <==

    Gradient:                    1
    J tasked:                  Yes
    K tasked:                  Yes
    wK tasked:                  No
    OpenMP threads:             32
    Integrals threads:          32
    Memory (MB):               375
    Schwarz Cutoff:          0E+00
    Fitting Condition:       1E-12

   => Auxiliary Basis Set <=

  Basis Set: (6-311++G(D,P) AUX)
    Blend: AUG-CC-PVTZ-JKFIT
    Number of shells: 262
    Number of basis function: 888
    Number of Cartesian functions: 1095
    Spherical Harmonics?: true
    Max angular momentum: 4

  ==> DFT Potential <==

   => Composite Functional: M06-2X <= 

    Hybrid M06-2X Meta-GGA XC Functional

    Y. Zhao and D. G. Truhlar,  Theor. Chem. Acc., 120, 215, 2008


    Deriv               =              1
    GGA                 =           TRUE
    Meta                =           TRUE

    Exchange Hybrid     =           TRUE
    MP2 Hybrid          =          FALSE

   => Exchange Functionals <=

    1.0000   XC_HYB_MGGA_X_M06_2X

   => Exact (HF) Exchange <=

    0.5400               HF 

   => Correlation Functionals <=

    1.0000   XC_MGGA_C_M06_2X

   => Molecular Quadrature <=

    Radial Scheme       =       TREUTLER
    Pruning Scheme      =           FLAT
    Nuclear Scheme      =       TREUTLER

    BS radius alpha     =              1
    Pruning alpha       =              1
    Radial Points       =             75
    Spherical Points    =            302
    Total Points        =         294450
    Total Blocks        =           2261
    Max Points          =            256
    Max Functions       =            165


  -Total Gradient:
     Atom            X                  Y                   Z
    ------   -----------------  -----------------  -----------------
       1        0.024765263548     0.015485778177    -0.068962767858
       2        0.005152562984    -0.011373635974    -0.018013040655
       3       -0.006663827169    -0.002847079993     0.003144539874
       4        0.004392380746    -0.004703009433    -0.001086136597
       5       -0.000411760820     0.000447485205    -0.000155817986
       6        0.004661173779    -0.000734867035    -0.000596464997
       7        0.000513602592    -0.000360928692    -0.001347626737
       8        0.000536711133     0.000391239556     0.000357517767
       9       -0.023511397608    -0.000133915723     0.027906566738
      10        0.001851559903     0.005628066529    -0.006420030293
      11        0.026843163634     0.003072459703     0.059711612693
      12        0.000678977029     0.006684857220     0.000639361401
      13       -0.038532634085    -0.011433591891     0.004914549348


*** tstop() called on localhost.localdomain at Thu Jan 17 12:04:42 2019
Module time:
	user time   =      96.22 seconds =       1.60 minutes
	system time =       5.04 seconds =       0.08 minutes
	total time  =          5 seconds =       0.08 minutes
Total time:
	user time   =     920.35 seconds =      15.34 minutes
	system time =      41.72 seconds =       0.70 minutes
	total time  =         40 seconds =       0.67 minutes

			-----------------------------------------
			 OPTKING 2.0: for geometry optimizations 
			  - R.A. King,  Bethel University        
			-----------------------------------------

	Previous internal coordinate definitions found.
	---Fragment 1 Geometry and Gradient---
	 C          -0.3608370450       -1.5367994892       -0.2364019079
	 O          -2.4131585349       -1.1029438464       -1.5339832600
	 H           2.0711170204       -1.1389573859        3.4822815964
	 H          -1.1947012722       -0.7758050922        4.1256058934
	 H           2.1094391743        4.6939963229       -1.3439674114
	 C           2.3832436982        2.6560629825       -1.2015332249
	 H           2.6522918175        1.8516772574       -3.0899664140
	 H           4.0334012880        2.2735215732       -0.0265055876
	 O           0.2013249281        1.5882235401        0.0024391587
	 H          -1.6181836383        1.2148189707       -1.2019955905
	 C           0.2007202047       -1.8598439504        3.1067216999
	 H           0.0804201784       -3.8292833583        3.6383992488
	 H           0.4992292195       -3.1737445555       -1.1470911987
	             0.0247652635        0.0154857782       -0.0689627679
	             0.0051525630       -0.0113736360       -0.0180130407
	            -0.0066638272       -0.0028470800        0.0031445399
	             0.0043923807       -0.0047030094       -0.0010861366
	            -0.0004117608        0.0004474852       -0.0001558180
	             0.0046611738       -0.0007348670       -0.0005964650
	             0.0005136026       -0.0003609287       -0.0013476267
	             0.0005367111        0.0003912396        0.0003575178
	            -0.0235113976       -0.0001339157        0.0279065667
	             0.0018515599        0.0056280665       -0.0064200303
	             0.0268431636        0.0030724597        0.0597116127
	             0.0006789770        0.0066848572        0.0006393614
	            -0.0385326341       -0.0114335919        0.0049145493

	---Fragment 1 Intrafragment Coordinates---
	 - Coordinate -           - BOHR/RAD -       - ANG/DEG -
	 H(2,10)          =         2.472696	       1.308494
	 R(1,2)           =         2.466571	       1.305253
	 R(1,9)           =         3.184155	       1.684982
	 R(1,11)          =         3.405316	       1.802016
	 R(1,13)          =         2.061227	       1.090755
	 R(3,11)          =         2.039389	       1.079198
	 R(4,11)          =         2.039722	       1.079374
	 R(5,6)           =         2.061172	       1.090725
	 R(6,7)           =         2.070170	       1.095487
	 R(6,8)           =         2.061564	       1.090933
	 R(6,9)           =         2.711199	       1.434705
	 R(9,10)          =         2.213754	       1.171468
	 R(11,12)         =         2.043488	       1.081367
	 B(1,9,6)         =         2.089002	     119.691007
	 B(1,9,10)        =         1.211665	      69.423302
	 B(1,11,3)        =         1.873915	     107.367424
	 B(1,11,4)        =         1.904098	     109.096783
	 B(1,11,12)       =         1.914683	     109.703252
	 B(2,1,9)         =         1.584528	      90.786764
	 B(2,1,11)        =         2.305485	     132.094557
	 B(2,1,13)        =         1.828069	     104.740666
	 B(3,11,4)        =         1.925788	     110.339547
	 B(3,11,12)       =         1.924902	     110.288734
	 B(4,11,12)       =         1.919804	     109.996651
	 B(5,6,7)         =         1.916020	     109.779839
	 B(5,6,8)         =         1.906235	     109.219217
	 B(5,6,9)         =         1.889360	     108.252339
	 B(6,9,10)        =         2.078630	     119.096728
	 B(7,6,8)         =         1.921760	     110.108744
	 B(7,6,9)         =         1.935468	     110.894153
	 B(8,6,9)         =         1.894400	     108.541099
	 B(9,1,11)        =         1.561146	      89.447063
	 B(9,1,13)        =         2.402212	     137.636591
	 B(11,1,13)       =         1.864609	     106.834215
	 D(1,9,6,5)       =         2.835252	     162.447961
	 D(1,9,6,7)       =         0.732389	      41.962798
	 D(1,9,6,8)       =        -1.380797	     -79.113834
	 D(2,1,9,6)       =        -1.998041	    -114.479338
	 D(2,1,9,10)      =        -0.033258	      -1.905562
	 D(2,1,11,3)      =        -2.575440	    -147.561817
	 D(2,1,11,4)      =        -0.488330	     -27.979235
	 D(2,1,11,12)     =         1.615760	      92.576211
	 D(3,11,1,9)      =        -0.994856	     -57.001057
	 D(3,11,1,13)     =         1.453345	      83.270561
	 D(4,11,1,9)      =         1.092254	      62.581525
	 D(4,11,1,13)     =        -2.742730	    -157.146857
	 D(5,6,9,10)      =         1.410670	      80.825411
	 D(6,9,1,11)      =         1.979710	     113.429046
	 D(6,9,1,13)      =        -0.023676	      -1.356562
	 D(7,6,9,10)      =        -0.692193	     -39.659752
	 D(8,6,9,10)      =        -2.805379	    -160.736384
	 D(9,1,11,12)     =        -3.086842	    -176.863029
	 D(10,9,1,11)     =        -2.338692	    -133.997177
	 D(10,9,1,13)     =         1.941107	     111.217214
	 D(12,11,1,13)    =        -0.638641	     -36.591411

	Current energy   :      -269.3977344655

	Energy change for the previous step:
		Projected    :        -0.0256301282
		Actual       :        -0.0340117347

	Performing Bofill update.
	Previous computed or guess Hessian on step 1.
	Steps to be used in Hessian update: 1
	Taking PRFO optimization step.
	Maximizing along 1 lowest eigenvalue of Hessian.

 RFO min eigenvalues
 -0.025279 -0.000000 -0.000000 -0.000000 -0.000000 -0.000000 -0.000000 -0.000000
 -0.000000 -0.000000 -0.000000 -0.000000 -0.000000 -0.000000  0.000000  0.000000
  0.000000  0.000000  0.000000  0.000000  0.000000  0.000000  0.000000  0.000290
  0.002961  0.012106  0.032418  0.037056  0.045359  0.057152  0.057519  0.061152
  0.069863  0.073415  0.091072  0.128147  0.140166  0.159856  0.159980  0.159995
  0.159997  0.160000  0.162523  0.216494  0.239791  0.263628  0.342212  0.347534
  0.347646  0.372272  0.372301  0.372318  0.375239  0.402122  0.643037

 RFO max eigenvalues
 -0.084778  0.072345
	Change in coordinate exceeds step limit of    0.50000.
	Scaling displacements by    0.43739
	|RFO target step|  :        0.5000000000
	RFO gradient       :        0.0411720002
	RFO hessian        :        0.0024533175
	Projected Delta(E) :        0.0167141318

	Back-transformation to cartesian coordinates...
	Successfully converged to displaced geometry.

	--- Internal Coordinate Step in ANG or DEG, aJ/ANG or AJ/DEG ---
	 ---------------------------------------------------------------------------
	   Coordinate                Previous        Force       Change         New 
	   ----------                --------       ------       ------       ------
	    1 H(2,10)         =      1.308494    -0.069399    -0.013038     1.295457
	    2 R(1,2)          =      1.305253    -0.014388    -0.004409     1.300844
	    3 R(1,9)          =      1.684982     0.038694     0.009287     1.694269
	    4 R(1,11)         =      1.802016    -0.537310     0.099227     1.901243
	    5 R(1,13)         =      1.090755     0.075563     0.004252     1.095007
	    6 R(3,11)         =      1.079198     0.053957     0.003457     1.082655
	    7 R(4,11)         =      1.079374     0.049770     0.002175     1.081549
	    8 R(5,6)          =      1.090725    -0.004110    -0.000274     1.090451
	    9 R(6,7)          =      1.095487    -0.012009    -0.001297     1.094189
	   10 R(6,8)          =      1.090933    -0.004366    -0.000448     1.090484
	   11 R(6,9)          =      1.434705    -0.040098    -0.000904     1.433801
	   12 R(9,10)         =      1.171468    -0.043003    -0.001851     1.169617
	   13 R(11,12)        =      1.081367     0.052017     0.003774     1.085141
	   14 B(1,9,6)        =    119.691007     0.000222     0.678103   120.369110
	   15 B(1,9,10)       =     69.423302     0.000017     5.667439    75.090741
	   16 B(1,11,3)       =    107.367424    -0.000445    -1.124922   106.242502
	   17 B(1,11,4)       =    109.096783    -0.000126    -1.184899   107.911884
	   18 B(1,11,12)      =    109.703252    -0.000148     0.789059   110.492311
	   19 B(2,1,9)        =     90.786764    -0.000506    -5.748402    85.038361
	   20 B(2,1,11)       =    132.094557    -0.001573     2.167597   134.262154
	   21 B(2,1,13)       =    104.740666     0.001506    -0.433501   104.307165
	   22 B(3,11,4)       =    110.339547     0.000239     0.426242   110.765789
	   23 B(3,11,12)      =    110.288734     0.000251     0.372996   110.661729
	   24 B(4,11,12)      =    109.996651     0.000207     0.645631   110.642282
	   25 B(5,6,7)        =    109.779839     0.000011     0.049209   109.829048
	   26 B(5,6,8)        =    109.219217     0.000004     0.226326   109.445543
	   27 B(5,6,9)        =    108.252339     0.000050     0.530571   108.782910
	   28 B(6,9,10)       =    119.096728     0.000108    -0.693075   118.403652
	   29 B(7,6,8)        =    110.108744     0.000012     0.010330   110.119074
	   30 B(7,6,9)        =    110.894153    -0.000043    -0.173044   110.721109
	   31 B(8,6,9)        =    108.541099    -0.000033    -0.639130   107.901969
	   32 B(9,1,11)       =     89.447063     0.002231     2.724596    92.171660
	   33 B(9,1,13)       =    137.636591    -0.002657     5.916908   143.553500
	   34 B(11,1,13)      =    106.834215    -0.000176    -2.303268   104.530947
	   35 D(1,9,6,5)      =    162.447961     0.000025     4.162990   166.610951
	   36 D(1,9,6,7)      =     41.962798     0.000021     3.869025    45.831823
	   37 D(1,9,6,8)      =    -79.113834     0.000029     4.370277   -74.743557
	   38 D(2,1,9,6)      =   -114.479338    -0.000119    -4.795750  -119.275089
	   39 D(2,1,9,10)     =     -1.905562    -0.000097    -2.880356    -4.785918
	   40 D(2,1,11,3)     =   -147.561817    -0.000060     5.378085  -142.183732
	   41 D(2,1,11,4)     =    -27.979235    -0.000069     4.628841   -23.350395
	   42 D(2,1,11,12)    =     92.576211    -0.000049     5.158861    97.735072
	   43 D(3,11,1,9)     =    -57.001057     0.000246     0.004625   -56.996432
	   44 D(3,11,1,13)    =     83.270561    -0.000203     7.023341    90.293902
	   45 D(4,11,1,9)     =     62.581525     0.000237    -0.744619    61.836906
	   46 D(4,11,1,13)    =   -157.146857    -0.000212     6.274097  -150.872760
	   47 D(5,6,9,10)     =     80.825411    -0.000016    -2.946027    77.879384
	   48 D(6,9,1,11)     =    113.429046     0.000237    -6.953218   106.475828
	   49 D(6,9,1,13)     =     -1.356562    -0.000014   -10.461546   -11.818109
	   50 D(7,6,9,10)     =    -39.659752    -0.000021    -3.239992   -42.899744
	   51 D(8,6,9,10)     =   -160.736384    -0.000013    -2.738740  -163.475124
	   52 D(9,1,11,12)    =   -176.863029     0.000257    -0.214598  -177.077627
	   53 D(10,9,1,11)    =   -133.997177     0.000259    -5.037824  -139.035002
	   54 D(10,9,1,13)    =    111.217214     0.000008    -8.546152   102.671062
	   55 D(12,11,1,13)   =    -36.591411    -0.000192     6.804118   -29.787293
	 ---------------------------------------------------------------------------
	Successfully symmetrized geometry.

  ==> Convergence Check <==

  Measures of convergence in internal coordinates in au.
  Criteria marked as inactive (o), active & met (*), and active & unmet ( ).
  ---------------------------------------------------------------------------------------------
   Step     Total Energy     Delta E     MAX Force     RMS Force      MAX Disp      RMS Disp   
  ---------------------------------------------------------------------------------------------
    Convergence Criteria    1.00e-06 *    3.00e-04 *             o    1.20e-03 *             o
  ---------------------------------------------------------------------------------------------
      2    -269.39773447   -3.40e-02      6.52e-02      1.29e-02 o    1.88e-01      6.74e-02 o  ~
  ---------------------------------------------------------------------------------------------

	Writing optimization data to binary file.
	Structure for next step:
	Cartesian Geometry (in Angstrom)
	    C    -0.2985836247  -0.7287091380  -0.1998642612
	    O    -1.3274708874  -0.2609796087  -0.8439248890
	    H     1.0942771655  -0.8286534072   1.7972071503
	    H    -0.6027691455  -0.5054727874   2.2305572439
	    H     1.3643844769   2.4702964571  -0.5421504973
	    C     1.3782185253   1.3799824558  -0.5525479450
	    H     1.5224047395   1.0203581546  -1.5758422040
	    H     2.1842372077   1.0210187025   0.0882603293
	    O     0.1396765783   0.8974235937  -0.0150204644
	    H    -0.8089508078   0.9172892763  -0.6989177492
	    C     0.0623175839  -1.1087810273   1.6277080267
	    H    -0.0866811431  -2.1638748526   1.8329102205
	    H    -0.0466903998  -1.6543170052  -0.7279168198
			--------------------------
			 OPTKING Finished Execution 
			--------------------------

    Structure for next step:
    Molecular point group: c1
    Full point group: C1

    Geometry (in Angstrom), charge = 0, multiplicity = 1:

    C           -0.290183191606    -0.794040173563    -0.189183631322
    O           -1.319070454310    -0.326310644304    -0.833244259078
    H            1.102677598614    -0.893984442812     1.807887780194
    H           -0.594368712468    -0.570803822953     2.241237873837
    H            1.372784909946     2.404965421488    -0.531469867392
    C            1.386618958367     1.314651420243    -0.541867315124
    H            1.530805172584     0.955027119054    -1.565161574077
    H            2.192637640806     0.955687666904     0.098940959226
    O            0.148077011333     0.832092558169    -0.004339834533
    H           -0.800550374728     0.851958240753    -0.688237119338
    C            0.070718017018    -1.174112062904     1.638388656550
    H           -0.078280710005    -2.229205888187     1.843590850380
    H           -0.038289966685    -1.719648040751    -0.717236189879

gradient() will perform analytic gradient computation.

*** tstart() called on localhost.localdomain
*** at Thu Jan 17 12:04:42 2019

   => Loading Basis Set <=

    Name: 6-311++G(D,P)
    Role: ORBITAL
    Keyword: BASIS
    atoms 1, 6, 11            entry C          line   119 file /root/psi4conda/share/psi4/basis/6-311ppg_d_p_.gbs 
    atoms 2, 9                entry O          line   161 file /root/psi4conda/share/psi4/basis/6-311ppg_d_p_.gbs 
    atoms 3-5, 7-8, 10, 12-13 entry H          line    42 file /root/psi4conda/share/psi4/basis/6-311ppg_d_p_.gbs 


         ---------------------------------------------------------
                                   SCF
            by Justin Turney, Rob Parrish, Andy Simmonett
                             and Daniel Smith
                              RKS Reference
                       32 Threads,    500 MiB Core
         ---------------------------------------------------------

  ==> Geometry <==

    Molecular point group: c1
    Full point group: C1

    Geometry (in Angstrom), charge = 0, multiplicity = 1:

       Center              X                  Y                   Z               Mass       
    ------------   -----------------  -----------------  -----------------  -----------------
         C           -0.290183191606    -0.794040173563    -0.189183631322    12.000000000000
         O           -1.319070454310    -0.326310644304    -0.833244259078    15.994914619560
         H            1.102677598614    -0.893984442812     1.807887780194     1.007825032070
         H           -0.594368712468    -0.570803822953     2.241237873837     1.007825032070
         H            1.372784909946     2.404965421488    -0.531469867392     1.007825032070
         C            1.386618958367     1.314651420243    -0.541867315124    12.000000000000
         H            1.530805172584     0.955027119054    -1.565161574077     1.007825032070
         H            2.192637640806     0.955687666904     0.098940959226     1.007825032070
         O            0.148077011333     0.832092558169    -0.004339834533    15.994914619560
         H           -0.800550374728     0.851958240753    -0.688237119338     1.007825032070
         C            0.070718017018    -1.174112062904     1.638388656550    12.000000000000
         H           -0.078280710005    -2.229205888187     1.843590850380     1.007825032070
         H           -0.038289966685    -1.719648040751    -0.717236189879     1.007825032070

  Running in c1 symmetry.

  Rotational constants: A =      0.20048  B =      0.12998  C =      0.08897 [cm^-1]
  Rotational constants: A =   6010.12256  B =   3896.62295  C =   2667.38727 [MHz]
  Nuclear repulsion =  189.745423672741310

  Charge       = 0
  Multiplicity = 1
  Electrons    = 42
  Nalpha       = 21
  Nbeta        = 21

  ==> Algorithm <==

  SCF Algorithm Type is DF.
  DIIS enabled.
  MOM disabled.
  Fractional occupation disabled.
  Guess Type is READ.
  Energy threshold   = 1.00e-08
  Density threshold  = 1.00e-08
  Integral threshold = 0.00e+00

  ==> Primary Basis <==

  Basis Set: 6-311++G(D,P)
    Blend: 6-311++G(D,P)
    Number of shells: 90
    Number of basis function: 166
    Number of Cartesian functions: 171
    Spherical Harmonics?: true
    Max angular momentum: 2

  ==> DFT Potential <==

   => Composite Functional: M06-2X <= 

    Hybrid M06-2X Meta-GGA XC Functional

    Y. Zhao and D. G. Truhlar,  Theor. Chem. Acc., 120, 215, 2008


    Deriv               =              1
    GGA                 =           TRUE
    Meta                =           TRUE

    Exchange Hybrid     =           TRUE
    MP2 Hybrid          =          FALSE

   => Exchange Functionals <=

    1.0000   XC_HYB_MGGA_X_M06_2X

   => Exact (HF) Exchange <=

    0.5400               HF 

   => Correlation Functionals <=

    1.0000   XC_MGGA_C_M06_2X

   => Molecular Quadrature <=

    Radial Scheme       =       TREUTLER
    Pruning Scheme      =           FLAT
    Nuclear Scheme      =       TREUTLER

    BS radius alpha     =              1
    Pruning alpha       =              1
    Radial Points       =             75
    Spherical Points    =            302
    Total Points        =         294450
    Total Blocks        =           2252
    Max Points          =            256
    Max Functions       =            165

   => Loading Basis Set <=

    Name: (6-311++G(D,P) AUX)
    Role: JKFIT
    Keyword: DF_BASIS_SCF
    atoms 1, 6, 11            entry C          line   162 file /root/psi4conda/share/psi4/basis/aug-cc-pvtz-jkfit.gbs 
    atoms 2, 9                entry O          line   286 file /root/psi4conda/share/psi4/basis/aug-cc-pvtz-jkfit.gbs 
    atoms 3-5, 7-8, 10, 12-13 entry H          line    70 file /root/psi4conda/share/psi4/basis/aug-cc-pvtz-jkfit.gbs 

  Reading orbitals from file 180, no projection.

  ==> Pre-Iterations <==

   -------------------------------------------------------
    Irrep   Nso     Nmo     Nalpha   Nbeta   Ndocc  Nsocc
   -------------------------------------------------------
     A        166     166       0       0       0       0
   -------------------------------------------------------
    Total     166     166      21      21      21       0
   -------------------------------------------------------

  ==> Integral Setup <==

  DFHelper Memory: AOs need 0.238 [GiB]; user supplied 0.366 [GiB]. Using in-core AOs.

  ==> MemDFJK: Density-Fitted J/K Matrices <==

    J tasked:                   Yes
    K tasked:                   Yes
    wK tasked:                   No
    OpenMP threads:              32
    Memory (MB):                375
    Algorithm:                 Core
    Schwarz Cutoff:           1E-12
    Mask sparsity (%):       2.1556
    Fitting Condition:        1E-12

   => Auxiliary Basis Set <=

  Basis Set: (6-311++G(D,P) AUX)
    Blend: AUG-CC-PVTZ-JKFIT
    Number of shells: 262
    Number of basis function: 888
    Number of Cartesian functions: 1095
    Spherical Harmonics?: true
    Max angular momentum: 4

  Minimum eigenvalue in the overlap matrix is 1.6825339569E-04.
  Using Symmetric Orthogonalization.

  SCF Guess: Orbitals guess was supplied from a previous computation.

  ==> Iterations <==

                           Total Energy        Delta E     RMS |[F,P]|

   @DF-RKS iter   0:  -269.30696148346237   -2.69307e+02   5.83395e-03 
   @DF-RKS iter   1:  -269.36579079962104   -5.88293e-02   1.27762e-03 
   @DF-RKS iter   2:  -269.36749805386000   -1.70725e-03   1.38318e-03 DIIS
   @DF-RKS iter   3:  -269.36971450862825   -2.21645e-03   2.50303e-04 DIIS
   @DF-RKS iter   4:  -269.36980246882172   -8.79602e-05   2.06840e-04 DIIS
   @DF-RKS iter   5:  -269.36985814749647   -5.56787e-05   4.10731e-05 DIIS
   @DF-RKS iter   6:  -269.36986102886942   -2.88137e-06   1.13812e-05 DIIS
   @DF-RKS iter   7:  -269.36986176213742   -7.33268e-07   7.34386e-06 DIIS
   @DF-RKS iter   8:  -269.36986191266004   -1.50523e-07   3.02884e-06 DIIS
   @DF-RKS iter   9:  -269.36986192613148   -1.34714e-08   1.06138e-06 DIIS
   @DF-RKS iter  10:  -269.36986192769427   -1.56280e-09   2.28431e-07 DIIS
   @DF-RKS iter  11:  -269.36986192777977   -8.54925e-11   1.04685e-07 DIIS
   @DF-RKS iter  12:  -269.36986192778897   -9.20863e-12   7.28564e-08 DIIS
   @DF-RKS iter  13:  -269.36986192779136   -2.38742e-12   8.49092e-09 DIIS

  ==> Post-Iterations <==

    Orbital Energies [Eh]
    ---------------------

    Doubly Occupied:                                                      

       1A    -19.672480     2A    -19.592318     3A    -10.672942  
       4A    -10.603988     5A    -10.536453     6A     -1.212177  
       7A     -1.103696     8A     -0.806418     9A     -0.785054  
      10A     -0.691277    11A     -0.620881    12A     -0.572715  
      13A     -0.548814    14A     -0.502285    15A     -0.473203  
      16A     -0.467650    17A     -0.452932    18A     -0.440685  
      19A     -0.417841    20A     -0.339341    21A     -0.288344  

    Virtual:                                                              

      22A     -0.007110    23A      0.010471    24A      0.012843  
      25A      0.017000    26A      0.023171    27A      0.040836  
      28A      0.042550    29A      0.049398    30A      0.062605  
      31A      0.074470    32A      0.086722    33A      0.100168  
      34A      0.102631    35A      0.114012    36A      0.117963  
      37A      0.125373    38A      0.128064    39A      0.137306  
      40A      0.147215    41A      0.159474    42A      0.162050  
      43A      0.182014    44A      0.199843    45A      0.204600  
      46A      0.211817    47A      0.223457    48A      0.238613  
      49A      0.245968    50A      0.251981    51A      0.271266  
      52A      0.289552    53A      0.299489    54A      0.318357  
      55A      0.320525    56A      0.328113    57A      0.343593  
      58A      0.348896    59A      0.363304    60A      0.428434  
      61A      0.436538    62A      0.474942    63A      0.478638  
      64A      0.508090    65A      0.527804    66A      0.542887  
      67A      0.567595    68A      0.608876    69A      0.611862  
      70A      0.638465    71A      0.663068    72A      0.677229  
      73A      0.700981    74A      0.703774    75A      0.731186  
      76A      0.737563    77A      0.751900    78A      0.784639  
      79A      0.912985    80A      0.929267    81A      0.989700  
      82A      1.032608    83A      1.053983    84A      1.089153  
      85A      1.098462    86A      1.136092    87A      1.217562  
      88A      1.237107    89A      1.278433    90A      1.317838  
      91A      1.344241    92A      1.375095    93A      1.393009  
      94A      1.437507    95A      1.471308    96A      1.499794  
      97A      1.530867    98A      1.564123    99A      1.581282  
     100A      1.589112   101A      1.621444   102A      1.648554  
     103A      1.660417   104A      1.695858   105A      1.723652  
     106A      1.736210   107A      1.745700   108A      1.764618  
     109A      1.780997   110A      1.852286   111A      1.856286  
     112A      1.878492   113A      1.937403   114A      2.004345  
     115A      2.038252   116A      2.076078   117A      2.085238  
     118A      2.173339   119A      2.245194   120A      2.249902  
     121A      2.277540   122A      2.454756   123A      2.465407  
     124A      2.506684   125A      2.525068   126A      2.536094  
     127A      2.546777   128A      2.575625   129A      2.588192  
     130A      2.610640   131A      2.622380   132A      2.650393  
     133A      2.686861   134A      2.733373   135A      2.745037  
     136A      2.844936   137A      2.915049   138A      2.927037  
     139A      2.987263   140A      3.017821   141A      3.095451  
     142A      3.183513   143A      3.237116   144A      3.267631  
     145A      3.406914   146A      3.509003   147A      3.627597  
     148A      3.705870   149A      3.802151   150A      3.818230  
     151A      3.826465   152A      3.872213   153A      3.893094  
     154A      4.051824   155A      4.092366   156A      5.186273  
     157A      5.237821   158A      5.288478   159A      5.374622  
     160A      5.622223   161A      5.741066   162A     23.798176  
     163A     23.973812   164A     24.031348   165A     49.992297  
     166A     50.055731  

    Final Occupation by Irrep:
              A 
    DOCC [    21 ]

  Energy converged.

  @DF-RKS Final Energy:  -269.36986192779136

   => Energetics <=

    Nuclear Repulsion Energy =            189.7454236727413104
    One-Electron Energy =                -742.2261923489136279
    Two-Electron Energy =                 300.5923327399789855
    DFT Exchange-Correlation Energy =     -17.4814259915979449
    Empirical Dispersion Energy =           0.0000000000000000
    VV10 Nonlocal Energy =                  0.0000000000000000
    Total Energy =                       -269.3698619277913622



Properties will be evaluated at   0.000000,   0.000000,   0.000000 [a0]

Properties computed using the SCF density matrix

  Nuclear Dipole Moment: [e a0]
     X:     4.3887      Y:    -0.2282      Z:     2.3299

  Electronic Dipole Moment: [e a0]
     X:    -3.1070      Y:     0.5827      Z:    -2.3491

  Dipole Moment: [e a0]
     X:     1.2817      Y:     0.3545      Z:    -0.0193     Total:     1.3300

  Dipole Moment: [D]
     X:     3.2578      Y:     0.9011      Z:    -0.0489     Total:     3.3804


*** tstop() called on localhost.localdomain at Thu Jan 17 12:04:58 2019
Module time:
	user time   =     385.78 seconds =       6.43 minutes
	system time =      19.28 seconds =       0.32 minutes
	total time  =         16 seconds =       0.27 minutes
Total time:
	user time   =    1308.14 seconds =      21.80 minutes
	system time =      61.02 seconds =       1.02 minutes
	total time  =         56 seconds =       0.93 minutes

*** tstart() called on localhost.localdomain
*** at Thu Jan 17 12:04:58 2019


         ------------------------------------------------------------
                                   SCF GRAD                          
                          Rob Parrish, Justin Turney,                
                       Andy Simmonett, and Alex Sokolov              
         ------------------------------------------------------------

  ==> Geometry <==

    Molecular point group: c1
    Full point group: C1

[...]
      11        0.000025059684     0.000052854626    -0.000085983320
      12       -0.000010527903     0.000003425058     0.000029133212
      13        0.000007076056    -0.000011394328     0.000083877702


*** tstop() called on localhost.localdomain at Thu Jan 17 12:15:47 2019
Module time:
	user time   =     113.14 seconds =       1.89 minutes
	system time =       6.96 seconds =       0.12 minutes
	total time  =          6 seconds =       0.10 minutes
Total time:
	user time   =   16462.71 seconds =     274.38 minutes
	system time =     710.31 seconds =      11.84 minutes
	total time  =        705 seconds =      11.75 minutes

			-----------------------------------------
			 OPTKING 2.0: for geometry optimizations 
			  - R.A. King,  Bethel University        
			-----------------------------------------

	Previous internal coordinate definitions found.
	---Fragment 1 Geometry and Gradient---
	 C          -0.0689044799       -1.3675637242        0.1748620750
	 O          -2.0706296770       -1.4460682561       -1.2692740652
	 H           1.3514478438       -1.3533166974        4.0018430480
	 H          -1.9812594969       -0.8725457625        3.6806087224
	 H           1.9075403608        4.6427948206       -2.0666106094
	 C           2.2774444709        2.6809205785       -1.5646004441
	 H           2.5091292328        1.5522633969       -3.2824697976
	 H           3.9897961193        2.5817753468       -0.4240112740
	 O           0.2058938284        1.7727876276       -0.1076154221
	 H          -1.4800905137        1.0083506403       -1.2336630434
	 C          -0.3419220509       -1.8858989334        2.9542762259
	 H          -0.6663583490       -3.9123007866        3.1841378883
	 H           1.7390058952       -2.0151340272       -0.6362838168
	             0.0001039657       -0.0000543641        0.0001231659
	            -0.0000665553        0.0001258122       -0.0000522176
	            -0.0000079316        0.0000071712        0.0000380734
	            -0.0000096292        0.0000071003        0.0000048086
	             0.0000112321       -0.0000402776       -0.0000196120
	            -0.0000175442       -0.0000553586       -0.0000064278
	             0.0000191454       -0.0000505392       -0.0000001243
	             0.0000190559       -0.0000252980        0.0000003498
	             0.0002013858       -0.0000282533        0.0001628185
	            -0.0002440444       -0.0002030033       -0.0001270733
	             0.0000250597        0.0000528546       -0.0000859833
	            -0.0000105279        0.0000034251        0.0000291332
	             0.0000070761       -0.0000113943        0.0000838777

	---Fragment 1 Intrafragment Coordinates---
	 - Coordinate -           - BOHR/RAD -       - ANG/DEG -
	 H(2,10)          =         2.524713	       1.336021
	 R(1,2)           =         2.469534	       1.306821
	 R(1,9)           =         3.164983	       1.674837
	 R(1,11)          =         2.840485	       1.503120
	 R(1,13)          =         2.084669	       1.103159
	 R(3,11)          =         2.061199	       1.090740
	 R(4,11)          =         2.059580	       1.089883
	 R(5,6)           =         2.058590	       1.089359
	 R(6,7)           =         2.068483	       1.094594
	 R(6,8)           =         2.059835	       1.090018
	 R(6,9)           =         2.690508	       1.423755
	 R(9,10)          =         2.166770	       1.146605
	 R(11,12)         =         2.065042	       1.092773
	 B(1,9,6)         =         2.037660	     116.749304
	 B(1,9,10)        =         1.190462	      68.208445
	 B(1,11,3)        =         1.951087	     111.789041
	 B(1,11,4)        =         1.909006	     109.377979
	 B(1,11,12)       =         1.878725	     107.643000
	 B(2,1,9)         =         1.620544	      92.850314
	 B(2,1,11)        =         2.081164	     119.241920
	 B(2,1,13)        =         2.055046	     117.745465
	 B(3,11,4)        =         1.925755	     110.337650
	 B(3,11,12)       =         1.902919	     109.029215
	 B(4,11,12)       =         1.894949	     108.572596
	 B(5,6,7)         =         1.915173	     109.731329
	 B(5,6,8)         =         1.907396	     109.285752
	 B(5,6,9)         =         1.891655	     108.383847
	 B(6,9,10)        =         2.022789	     115.897266
	 B(7,6,8)         =         1.918239	     109.907006
	 B(7,6,9)         =         1.930294	     110.597719
	 B(8,6,9)         =         1.900704	     108.902332
	 B(9,1,11)        =         1.851195	     106.065637
	 B(9,1,13)        =         1.770309	     101.431234
	 B(11,1,13)       =         1.990408	     114.041994
	 D(1,9,6,5)       =         2.842605	     162.869284
	 D(1,9,6,7)       =         0.742465	      42.540129
	 D(1,9,6,8)       =        -1.367210	     -78.335372
	 D(2,1,9,6)       =        -1.908820	    -109.367356
	 D(2,1,9,10)      =        -0.006768	      -0.387793
	 D(2,1,11,3)      =        -2.917745	    -167.174450
	 D(2,1,11,4)      =        -0.779632	     -44.669614
	 D(2,1,11,12)     =         1.276112	      73.115812
	 D(3,11,1,9)      =        -1.124589	     -64.434182
	 D(3,11,1,13)     =         0.808385	      46.317054
	 D(4,11,1,9)      =         1.013524	      58.070654
	 D(4,11,1,13)     =         2.946498	     168.821890
	 D(5,6,9,10)      =         1.490974	      85.426507
	 D(6,9,1,11)      =         2.252826	     129.077445
	 D(6,9,1,13)      =         0.169050	       9.685872
	 D(7,6,9,10)      =        -0.609166	     -34.902647
	 D(8,6,9,10)      =        -2.718842	    -155.778148
	 D(9,1,11,12)     =         3.069268	     175.856080
	 D(10,9,1,11)     =        -2.128307	    -121.942992
	 D(10,9,1,13)     =         2.071103	     118.665435
	 D(12,11,1,13)    =        -1.280944	     -73.392685

	Current energy   :      -269.4609226894

	Energy change for the previous step:
		Projected    :        -0.0000007244
		Actual       :        -0.0000004631

	Performing Bofill update.
	Previous computed or guess Hessian on step 1.
	Steps to be used in Hessian update: 38 37
	Taking PRFO optimization step.
	Maximizing along 1 lowest eigenvalue of Hessian.

 RFO min eigenvalues
 -0.000002 -0.000000 -0.000000 -0.000000 -0.000000 -0.000000 -0.000000 -0.000000
 -0.000000 -0.000000  0.000000  0.000000  0.000000  0.000000  0.000000  0.000000
  0.000000  0.000000  0.000000  0.000000  0.000000  0.000000  0.000000  0.001760
  0.003118  0.013833  0.038466  0.052410  0.056939  0.057846  0.069902  0.073479
  0.088065  0.104593  0.135900  0.140207  0.159452  0.160013  0.160193  0.160286
  0.163018  0.164095  0.196426  0.252250  0.263378  0.317963  0.342638  0.347661
  0.347823  0.370284  0.372421  0.372452  0.374138  0.403085  0.651301

 RFO max eigenvalues
 -0.013616  0.000001
	|RFO target step|  :        0.0182318492
	RFO gradient       :       -0.0000130868
	RFO hessian        :        0.0007171070
	Projected Delta(E) :       -0.0000001194

	Back-transformation to cartesian coordinates...
	Could not converge backtransformation.
	Using first guess instead.

	--- Internal Coordinate Step in ANG or DEG, aJ/ANG or AJ/DEG ---
	 ---------------------------------------------------------------------------
	   Coordinate                Previous        Force       Change         New 
	   ----------                --------       ------       ------       ------
	    1 H(2,10)         =      1.336021     0.001052    -0.000598     1.335422
	    2 R(1,2)          =      1.306821    -0.001000     0.000095     1.306916
	    3 R(1,9)          =      1.674837     0.000624    -0.000692     1.674144
	    4 R(1,11)         =      1.503120     0.001011    -0.000081     1.503039
	    5 R(1,13)         =      1.103159     0.000178     0.000036     1.103195
	    6 R(3,11)         =      1.090740    -0.000068     0.000019     1.090758
	    7 R(4,11)         =      1.089883     0.000006     0.000011     1.089894
	    8 R(5,6)          =      1.089359    -0.000003    -0.000008     1.089351
	    9 R(6,7)          =      1.094594    -0.000052    -0.000034     1.094560
	   10 R(6,8)          =      1.090018    -0.000070    -0.000004     1.090014
	   11 R(6,9)          =      1.423755     0.000071    -0.000041     1.423714
	   12 R(9,10)         =      1.146605    -0.002104     0.000482     1.147087
	   13 R(11,12)        =      1.092773     0.000021     0.000032     1.092805
	   14 B(1,9,6)        =    116.749304     0.000002     0.047442   116.796746
	   15 B(1,9,10)       =     68.208445    -0.000003     0.005211    68.213656
	   16 B(1,11,3)       =    111.789041    -0.000002    -0.022209   111.766832
	   17 B(1,11,4)       =    109.377979     0.000001    -0.002645   109.375334
	   18 B(1,11,12)      =    107.643000     0.000001     0.013828   107.656827
	   19 B(2,1,9)        =     92.850314     0.000000     0.009407    92.859721
	   20 B(2,1,11)       =    119.241920    -0.000001    -0.011308   119.230612
	   21 B(2,1,13)       =    117.745465    -0.000001    -0.049298   117.696167
	   22 B(3,11,4)       =    110.337650     0.000000     0.001085   110.338735
	   23 B(3,11,12)      =    109.029215    -0.000000     0.001630   109.030845
	   24 B(4,11,12)      =    108.572596    -0.000001     0.009505   108.582101
	   25 B(5,6,7)        =    109.731329     0.000000     0.004919   109.736248
	   26 B(5,6,8)        =    109.285752     0.000000     0.002072   109.287824
	   27 B(5,6,9)        =    108.383847     0.000001     0.003947   108.387794
	   28 B(6,9,10)       =    115.897266     0.000001     0.196733   116.094000
	   29 B(7,6,8)        =    109.907006     0.000001    -0.003026   109.903980
	   30 B(7,6,9)        =    110.597719    -0.000001     0.003740   110.601459
	   31 B(8,6,9)        =    108.902332    -0.000001    -0.011675   108.890657
	   32 B(9,1,11)       =    106.065637     0.000003     0.070291   106.135929
	   33 B(9,1,13)       =    101.431234    -0.000001     0.021753   101.452988
	   34 B(11,1,13)      =    114.041994     0.000001    -0.000520   114.041475
	   35 D(1,9,6,5)      =    162.869284    -0.000000     0.319566   163.188850
	   36 D(1,9,6,7)      =     42.540129    -0.000000     0.308777    42.848906
	   37 D(1,9,6,8)      =    -78.335372    -0.000000     0.317690   -78.017682
	   38 D(2,1,9,6)      =   -109.367356    -0.000000    -0.357055  -109.724412
	   39 D(2,1,9,10)     =     -0.387793    -0.000000    -0.141069    -0.528862
	   40 D(2,1,11,3)     =   -167.174450    -0.000000    -0.145151  -167.319601
	   41 D(2,1,11,4)     =    -44.669614    -0.000000    -0.160533   -44.830147
	   42 D(2,1,11,12)    =     73.115812    -0.000000    -0.142829    72.972983
	   43 D(3,11,1,9)     =    -64.434182     0.000000    -0.093504   -64.527686
	   44 D(3,11,1,13)    =     46.317054     0.000000    -0.026521    46.290533
	   45 D(4,11,1,9)     =     58.070654     0.000000    -0.108886    57.961768
	   46 D(4,11,1,13)    =    168.821890     0.000000    -0.041903   168.779987
	   47 D(5,6,9,10)     =     85.426507     0.000000     0.214605    85.641112
	   48 D(6,9,1,11)     =    129.077445    -0.000000    -0.365039   128.712407
	   49 D(6,9,1,13)     =      9.685872    -0.000001    -0.401919     9.283953
	   50 D(7,6,9,10)     =    -34.902647     0.000000     0.203816   -34.698831
	   51 D(8,6,9,10)     =   -155.778148     0.000000     0.212729  -155.565419
	   52 D(9,1,11,12)    =    175.856080     0.000000    -0.091182   175.764898
	   53 D(10,9,1,11)    =   -121.942992    -0.000000    -0.149052  -122.092044
	   54 D(10,9,1,13)    =    118.665435    -0.000001    -0.185932   118.479502
	   55 D(12,11,1,13)   =    -73.392685     0.000000    -0.024198   -73.416883
	 ---------------------------------------------------------------------------
	Successfully symmetrized geometry.

  ==> Convergence Check <==

  Measures of convergence in internal coordinates in au.
  Criteria marked as inactive (o), active & met (*), and active & unmet ( ).
  ---------------------------------------------------------------------------------------------
   Step     Total Energy     Delta E     MAX Force     RMS Force      MAX Disp      RMS Disp   
  ---------------------------------------------------------------------------------------------
    Convergence Criteria    1.00e-06 *    3.00e-04 *             o    1.20e-03 *             o
  ---------------------------------------------------------------------------------------------
     39    -269.46092269   -4.63e-07 *    2.55e-04 *    4.85e-05 o    7.01e-03      2.46e-03 o  ~
  ---------------------------------------------------------------------------------------------


  **** Optimization is complete! (in 39 steps) ****

  ==> Optimization Summary <==

  Measures of convergence in internal coordinates in au.
  --------------------------------------------------------------------------------------------------------------- ~
   Step         Total Energy             Delta E       MAX Force       RMS Force        MAX Disp        RMS Disp  ~
  --------------------------------------------------------------------------------------------------------------- ~
      1    -269.363722730817   -269.363722730817      0.06419001      0.01669759      0.17896552      0.04311190  ~
      2    -269.397734465515     -0.034011734698      0.06521765      0.01290860      0.18751211      0.06743097  ~
      3    -269.369861927791      0.027872537723      0.07116741      0.01444092      0.34484681      0.06761687  ~
      4    -269.412775875779     -0.042913947988      0.05848781      0.01135912      0.15972563      0.06750328  ~
      5    -269.417340578143     -0.004564702364      0.05402878      0.01056713      0.15949354      0.06766099  ~
      6    -269.425440743193     -0.008100165050      0.04312037      0.00942586      0.16779831      0.06788994  ~
      7    -269.430143950192     -0.004703206999      0.03812894      0.00859852      0.18431331      0.06800399  ~
      8    -269.433946861457     -0.003802911265      0.03450113      0.00780368      0.18480044      0.06773616  ~
      9    -269.437819049390     -0.003872187933      0.02697889      0.00691074      0.18524538      0.06755104  ~
     10    -269.443161452124     -0.005342402734      0.01906675      0.00622049      0.17597248      0.06733312  ~
     11    -269.452571708720     -0.009410256596      0.01674512      0.00576003      0.20906195      0.06806709  ~
     12    -269.456942736247     -0.004371027527      0.04512224      0.00856982      0.23787750      0.06806589  ~
     13    -269.453524075382      0.003418660865      0.04461342      0.00857144      0.22006748      0.06630392  ~
     14    -269.456417473517     -0.002893398134      0.02595443      0.00595238      0.18888082      0.06757688  ~
     15    -269.456193152326      0.000224321190      0.01617402      0.00430602      0.13847833      0.06640790  ~
     16    -269.455546969696      0.000646182630      0.01204540      0.00336543      0.17657446      0.06762049  ~
     17    -269.454502158051      0.001044811645      0.00984912      0.00265612      0.15622330      0.06748511  ~
     18    -269.454454394354      0.000047763698      0.00710901      0.00198244      0.16982970      0.06732952  ~
     19    -269.455684394859     -0.001230000505      0.00737906      0.00227496      0.13942404      0.04436397  ~
     20    -269.456504419706     -0.000820024847      0.00476461      0.00095580      0.18739575      0.06641409  ~
     21    -269.457080109850     -0.000575690144      0.00608162      0.00173237      0.13868377      0.05282314  ~
     22    -269.457776389463     -0.000696279613      0.00943047      0.00203742      0.17440934      0.06750626  ~
     23    -269.458690057001     -0.000913667538      0.00976377      0.00248319      0.17409938      0.06715256  ~
     24    -269.459883360404     -0.001193303403      0.01207521      0.00309108      0.15554800      0.06762112  ~
     25    -269.459960430239     -0.000077069835      0.00594111      0.00189930      0.18624614      0.06745610  ~
     26    -269.459982124762     -0.000021694523      0.00609865      0.00198836      0.16400864      0.06750683  ~
     27    -269.460239334015     -0.000257209253      0.00738345      0.00243190      0.19017476      0.06735127  ~
     28    -269.460305806946     -0.000066472931      0.00781648      0.00190284      0.07126580      0.02624563  ~
     29    -269.460891930949     -0.000586124003      0.00377449      0.00116151      0.13620872      0.06721585  ~
     30    -269.460573699861      0.000318231088      0.00731629      0.00152655      0.06546862      0.02864695  ~
     31    -269.460877730680     -0.000304030819      0.00096740      0.00037380      0.06092930      0.02602468  ~
     32    -269.460897407847     -0.000019677167      0.00155324      0.00036170      0.03975696      0.01738291  ~
     33    -269.460908507152     -0.000011099305      0.00116683      0.00023913      0.16120429      0.06743786  ~
     34    -269.460641191002      0.000267316150      0.00741331      0.00149518      0.10033734      0.04289862  ~
     35    -269.460864310041     -0.000223119039      0.00206649      0.00052793      0.04890648      0.01991137  ~
     36    -269.460918104226     -0.000053794185      0.00109700      0.00021505      0.00999027      0.00319671  ~
     37    -269.460920170070     -0.000002065844      0.00051218      0.00010054      0.01033448      0.00412246  ~
     38    -269.460922226356     -0.000002056285      0.00053274      0.00008177      0.00514311      0.00168219  ~
     39    -269.460922689425     -0.000000463069      0.00025535      0.00004845      0.00701481      0.00245954  ~
  --------------------------------------------------------------------------------------------------------------- ~

	Writing optimization data to binary file.
	Final energy is   -269.4609226894246
	Final (previous) structure:
	Cartesian Geometry (in Angstrom)
	    C    -0.0364626803  -0.7236835541   0.0925330248
	    O    -1.0957300325  -0.7652263632  -0.6716709068
	    H     0.7151553975  -0.7161443523   2.1176841334
	    H    -1.0484373701  -0.4617313309   1.9476942497
	    H     1.0094268834   2.4568612032  -1.0936032335
	    C     1.2051717078   1.4186820682  -0.8279508956
	    H     1.3277740034   0.8214224114  -1.7370082048
	    H     2.1113091733   1.3662166713  -0.2243771024
	    O     0.1089543214   0.9381188082  -0.0569476287
	    H    -0.7832301665   0.5335961771  -0.6528263657
	    C    -0.1809373565  -0.9979747332   1.5633356466
	    H    -0.3526216510  -2.0703004094   1.6849731995
	    H     0.9202422853  -1.0663629995  -0.3367068940
	Saving final (previous) structure.
	Removing binary optimization data file.
			--------------------------
			 OPTKING Finished Execution 
			--------------------------

    Final optimized geometry and variables:
    Molecular point group: c1
    Full point group: C1

    Geometry (in Angstrom), charge = 0, multiplicity = 1:

    C           -0.036462680314    -0.723683554130     0.092533024763
    O           -1.095730032479    -0.765226363212    -0.671670906753
    H            0.715155397527    -0.716144352256     2.117684133378
    H           -1.048437370072    -0.461731330943     1.947694249656
    H            1.009426883401     2.456861203234    -1.093603233550
    C            1.205171707811     1.418682068159    -0.827950895574
    H            1.327774003395     0.821422411390    -1.737008204778
    H            2.111309173268     1.366216671251    -0.224377102372
    O            0.108954321354     0.938118808173    -0.056947628683
    H           -0.783230166478     0.533596177120    -0.652826365660
    C           -0.180937356454    -0.997974733242     1.563335646612
    H           -0.352621651038    -2.070300409426     1.684973199517
    H            0.920242285339    -1.066362999473    -0.336706894028

	Removing binary optimization data file.
	Cleaning optimization helper files.

    Psi4 stopped on: Thursday, 17 January 2019 12:15PM
    Psi4 wall time for execution: 0:11:45.54

*** Psi4 exiting successfully. Buy a developer a beer!
