
    -----------------------------------------------------------------------
          Psi4: An Open-Source Ab Initio Electronic Structure Package
                               Psi4 1.2.1 release

                         Git: Rev {HEAD} 406f4de 


    R. M. Parrish, L. A. Burns, D. G. A. Smith, A. C. Simmonett,
    A. E. DePrince III, E. G. Hohenstein, U. Bozkaya, A. Yu. Sokolov,
    R. Di Remigio, R. M. Richard, J. F. Gonthier, A. M. James,
    H. R. McAlexander, A. Kumar, M. Saitow, X. Wang, B. P. Pritchard,
    P. Verma, H. F. Schaefer III, K. Patkowski, R. A. King, E. F. Valeev,
    F. A. Evangelista, J. M. Turney, T. D. Crawford, and C. D. Sherrill,
    J. Chem. Theory Comput. 13(7) pp 3185--3197 (2017).
    (doi: 10.1021/acs.jctc.7b00174)


                         Additional Contributions by
    P. Kraus, H. Kruse, M. H. Lechner, M. C. Schieber, and R. A. Shaw

    -----------------------------------------------------------------------


    Psi4 started on: Wednesday, 10 April 2019 01:08PM

    Process ID: 4319
    Host:       localhost.localdomain
    PSIDATADIR: /root/psi4conda/share/psi4
    Memory:     500.0 MiB
    Threads:    1
    
  ==> Input File <==

--------------------------------------------------------------------------

molecule {
0 1
 C    0.022416430723   -0.085847633159   -1.184513458862
 O   -1.008702638725   -0.295901042399   -1.880029585990
CL    1.423844081909    0.381203483610    1.119323124843
CL   -1.488020987053    0.325358976349    1.062682370363
 H    0.790726059669    3.180506574943   -2.236105186482
 C    1.087453099946    2.162572815271   -2.007739364332
 H    1.315417114396    1.611314747602   -2.923297789734
 H    1.941737251071    2.163153984854   -1.334044324755
 O    0.003408391072    1.539923815428   -1.312899362384
 H   -0.792898713464    1.323101652660   -1.888304594521
 C   -0.020682624730   -0.337635201152    0.351022350553
CL    0.026559871291   -2.100832980328    0.539485985776
 H    1.036216824763   -0.351182548326   -1.542632564336
}

set{
  basis 6-311++G(d,p)
  freeze_core True
  cubeprop_tasks ['ESP']
}

set_num_threads(32)
E, wfn = energy('m06-2x', return_wfn=True)
cubeprop(wfn)
--------------------------------------------------------------------------
  Threads set to 32 by Python driver.

*** tstart() called on localhost.localdomain
*** at Wed Apr 10 13:08:32 2019

   => Loading Basis Set <=

    Name: 6-311++G(D,P)
    Role: ORBITAL
    Keyword: BASIS
    atoms 1, 6, 11       entry C          line   119 file /root/psi4conda/share/psi4/basis/6-311ppg_d_p_.gbs 
    atoms 2, 9           entry O          line   161 file /root/psi4conda/share/psi4/basis/6-311ppg_d_p_.gbs 
    atoms 3-4, 12        entry CL         line   458 file /root/psi4conda/share/psi4/basis/6-311ppg_d_p_.gbs 
    atoms 5, 7-8, 10, 13 entry H          line    42 file /root/psi4conda/share/psi4/basis/6-311ppg_d_p_.gbs 


         ---------------------------------------------------------
                                   SCF
            by Justin Turney, Rob Parrish, Andy Simmonett
                             and Daniel Smith
                              RKS Reference
                       32 Threads,    500 MiB Core
         ---------------------------------------------------------

  ==> Geometry <==

    Molecular point group: c1
    Full point group: C1

    Geometry (in Angstrom), charge = 0, multiplicity = 1:

       Center              X                  Y                   Z               Mass       
    ------------   -----------------  -----------------  -----------------  -----------------
         C            0.022416430723    -0.085847633159    -1.184513458862    12.000000000000
         O           -1.008702638725    -0.295901042399    -1.880029585990    15.994914619560
         CL           1.423844081909     0.381203483610     1.119323124843    34.968852682000
         CL          -1.488020987053     0.325358976349     1.062682370363    34.968852682000
         H            0.790726059669     3.180506574943    -2.236105186482     1.007825032070
         C            1.087453099946     2.162572815271    -2.007739364332    12.000000000000
         H            1.315417114396     1.611314747602    -2.923297789734     1.007825032070
         H            1.941737251071     2.163153984854    -1.334044324755     1.007825032070
         O            0.003408391072     1.539923815428    -1.312899362384    15.994914619560
         H           -0.792898713464     1.323101652660    -1.888304594521     1.007825032070
         C           -0.020682624730    -0.337635201152     0.351022350553    12.000000000000
         CL           0.026559871291    -2.100832980328     0.539485985776    34.968852682000
         H            1.036216824763    -0.351182548326    -1.542632564336     1.007825032070

  Running in c1 symmetry.

  Rotational constants: A =      0.04837  B =      0.03170  C =      0.02890 [cm^-1]
  Rotational constants: A =   1450.07904  B =    950.23078  C =    866.32488 [MHz]
  Nuclear repulsion =  678.885376994503076

  Charge       = 0
  Multiplicity = 1
  Electrons    = 90
  Nalpha       = 45
  Nbeta        = 45

  ==> Algorithm <==

  SCF Algorithm Type is DF.
  DIIS enabled.
  MOM disabled.
  Fractional occupation disabled.
  Guess Type is SAD.
  Energy threshold   = 1.00e-06
  Density threshold  = 1.00e-06
  Integral threshold = 0.00e+00

  ==> Primary Basis <==

  Basis Set: 6-311++G(D,P)
    Blend: 6-311++G(D,P)
    Number of shells: 117
    Number of basis function: 235
    Number of Cartesian functions: 243
    Spherical Harmonics?: true
    Max angular momentum: 2

  ==> DFT Potential <==

   => Composite Functional: M06-2X <= 

    Hybrid M06-2X Meta-GGA XC Functional

    Y. Zhao and D. G. Truhlar,  Theor. Chem. Acc., 120, 215, 2008


    Deriv               =              1
    GGA                 =           TRUE
    Meta                =           TRUE

    Exchange Hybrid     =           TRUE
    MP2 Hybrid          =          FALSE

   => Exchange Functionals <=

    1.0000   XC_HYB_MGGA_X_M06_2X

   => Exact (HF) Exchange <=

    0.5400               HF 

   => Correlation Functionals <=

    1.0000   XC_MGGA_C_M06_2X

   => Molecular Quadrature <=

    Radial Scheme       =       TREUTLER
    Pruning Scheme      =           FLAT
    Nuclear Scheme      =       TREUTLER

    BS radius alpha     =              1
    Pruning alpha       =              1
    Radial Points       =             75
    Spherical Points    =            302
    Total Points        =         294156
    Total Blocks        =           2237
    Max Points          =            256
    Max Functions       =            207

   => Loading Basis Set <=

    Name: (6-311++G(D,P) AUX)
    Role: JKFIT
    Keyword: DF_BASIS_SCF
    atoms 1, 6, 11       entry C          line   162 file /root/psi4conda/share/psi4/basis/aug-cc-pvtz-jkfit.gbs 
    atoms 2, 9           entry O          line   286 file /root/psi4conda/share/psi4/basis/aug-cc-pvtz-jkfit.gbs 
    atoms 3-4, 12        entry CL         line   816 file /root/psi4conda/share/psi4/basis/aug-cc-pvtz-jkfit.gbs 
    atoms 5, 7-8, 10, 13 entry H          line    70 file /root/psi4conda/share/psi4/basis/aug-cc-pvtz-jkfit.gbs 

  ==> Pre-Iterations <==

   -------------------------------------------------------
    Irrep   Nso     Nmo     Nalpha   Nbeta   Ndocc  Nsocc
   -------------------------------------------------------
     A        235     235       0       0       0       0
   -------------------------------------------------------
    Total     235     235      45      45      45       0
   -------------------------------------------------------

  ==> Integral Setup <==

  ==> DiskDFJK: Density-Fitted J/K Matrices <==

    J tasked:                  Yes
    K tasked:                  Yes
    wK tasked:                  No
    OpenMP threads:             32
    Integrals threads:          32
    Memory (MB):               375
    Algorithm:                Core
    Integral Cache:           NONE
    Schwarz Cutoff:          1E-12
    Fitting Condition:       1E-12

   => Auxiliary Basis Set <=

  Basis Set: (6-311++G(D,P) AUX)
    Blend: AUG-CC-PVTZ-JKFIT
    Number of shells: 346
    Number of basis function: 1188
    Number of Cartesian functions: 1470
    Spherical Harmonics?: true
    Max angular momentum: 4

  Minimum eigenvalue in the overlap matrix is 2.3108119865E-05.
  Using Symmetric Orthogonalization.

  SCF Guess: Superposition of Atomic Densities via on-the-fly atomic UHF.

  ==> Iterations <==

                           Total Energy        Delta E     RMS |[F,P]|

   @DF-RKS iter   0: -1650.38400898679834   -1.65038e+03   1.01336e-01 
   @DF-RKS iter   1: -1647.96920096667327    2.41481e+00   1.59157e-02 
   @DF-RKS iter   2: -1647.60020930040628    3.68992e-01   2.42522e-02 DIIS
   @DF-RKS iter   3: -1648.24580368172428   -6.45594e-01   2.22811e-03 DIIS
   @DF-RKS iter   4: -1648.24835084960341   -2.54717e-03   1.41539e-03 DIIS
   @DF-RKS iter   5: -1648.25010516793350   -1.75432e-03   3.69881e-04 DIIS
   @DF-RKS iter   6: -1648.25028181528774   -1.76647e-04   8.26040e-05 DIIS
   @DF-RKS iter   7: -1648.25029545074449   -1.36355e-05   3.62097e-05 DIIS
   @DF-RKS iter   8: -1648.25029685641903   -1.40567e-06   1.19488e-05 DIIS
   @DF-RKS iter   9: -1648.25029702737152   -1.70952e-07   4.30728e-06 DIIS
   @DF-RKS iter  10: -1648.25029705280281   -2.54313e-08   1.10271e-06 DIIS
   @DF-RKS iter  11: -1648.25029705544625   -2.64345e-09   2.81003e-07 DIIS

  ==> Post-Iterations <==

    Orbital Energies [Eh]
    ---------------------

    Doubly Occupied:                                                      

       1A   -102.699903     2A   -102.694194     3A   -102.692208  
       4A    -19.729184     5A    -19.583123     6A    -10.728945  
       7A    -10.681918     8A    -10.635809     9A     -9.842618  
      10A     -9.836819    11A     -9.834899    12A     -7.567814  
      13A     -7.562212    14A     -7.560735    15A     -7.560582  
      16A     -7.560350    17A     -7.554789    18A     -7.554610  
      19A     -7.552844    20A     -7.552720    21A     -1.271854  
      22A     -1.134740    23A     -1.052149    24A     -0.941745  
      25A     -0.939389    26A     -0.855976    27A     -0.803358  
      28A     -0.686483    29A     -0.667991    30A     -0.617244  
      31A     -0.604346    32A     -0.561105    33A     -0.540542  
      34A     -0.536936    35A     -0.503477    36A     -0.488042  
      37A     -0.477632    38A     -0.423341    39A     -0.420858  
      40A     -0.407478    41A     -0.388765    42A     -0.386718  
      43A     -0.371747    44A     -0.356120    45A     -0.328126  

    Virtual:                                                              

      46A     -0.014982    47A      0.001193    48A      0.008465  
      49A      0.014264    50A      0.020004    51A      0.027866  
      52A      0.038074    53A      0.046315    54A      0.052610  
      55A      0.056588    56A      0.066035    57A      0.070699  
      58A      0.079150    59A      0.088134    60A      0.100338  
      61A      0.101285    62A      0.107105    63A      0.114766  
      64A      0.118663    65A      0.124918    66A      0.129050  
      67A      0.131743    68A      0.135998    69A      0.141830  
      70A      0.144849    71A      0.148162    72A      0.155097  
      73A      0.166240    74A      0.175148    75A      0.181984  
      76A      0.189950    77A      0.200765    78A      0.211048  
      79A      0.221884    80A      0.231158    81A      0.240905  
      82A      0.253974    83A      0.270264    84A      0.277267  
      85A      0.284636    86A      0.301174    87A      0.314303  
      88A      0.334436    89A      0.337320    90A      0.345505  
      91A      0.355306    92A      0.383468    93A      0.408536  
      94A      0.424170    95A      0.434945    96A      0.443661  
      97A      0.444260    98A      0.467165    99A      0.486353  
     100A      0.489052   101A      0.492412   102A      0.499660  
     103A      0.502523   104A      0.516678   105A      0.521588  
     106A      0.534375   107A      0.553162   108A      0.556498  
     109A      0.590083   110A      0.598784   111A      0.608747  
     112A      0.615631   113A      0.646392   114A      0.672835  
     115A      0.692223   116A      0.713956   117A      0.728265  
     118A      0.847349   119A      0.885611   120A      0.901551  
     121A      0.915249   122A      0.923042   123A      0.928666  
     124A      0.933269   125A      0.947198   126A      0.960582  
     127A      0.973486   128A      0.979836   129A      0.984301  
     130A      1.007198   131A      1.011930   132A      1.038069  
     133A      1.056526   134A      1.063364   135A      1.109337  
     136A      1.147026   137A      1.157325   138A      1.172407  
     139A      1.195694   140A      1.213169   141A      1.263282  
     142A      1.290119   143A      1.310710   144A      1.329920  
     145A      1.349440   146A      1.385252   147A      1.389105  
     148A      1.403023   149A      1.447932   150A      1.495757  
     151A      1.540476   152A      1.552242   153A      1.571746  
     154A      1.585931   155A      1.614508   156A      1.634055  
     157A      1.677158   158A      1.717444   159A      1.726677  
     160A      1.772746   161A      1.774893   162A      1.805121  
     163A      1.862091   164A      1.897953   165A      1.931730  
     166A      1.953015   167A      2.012574   168A      2.042027  
     169A      2.094377   170A      2.145862   171A      2.219026  
     172A      2.282684   173A      2.290697   174A      2.317761  
     175A      2.325012   176A      2.350531   177A      2.354691  
     178A      2.374405   179A      2.445642   180A      2.473419  
     181A      2.496493   182A      2.525555   183A      2.533959  
     184A      2.554536   185A      2.580146   186A      2.596646  
     187A      2.601997   188A      2.715178   189A      2.772968  
     190A      2.796864   191A      2.919674   192A      2.961651  
     193A      2.993588   194A      3.038647   195A      3.070703  
     196A      3.113529   197A      3.137372   198A      3.190043  
     199A      3.244969   200A      3.357552   201A      3.491732  
     202A      3.504222   203A      3.747334   204A      3.778366  
     205A      3.830757   206A      3.838282   207A      3.963699  
     208A      4.033301   209A      4.128397   210A      5.211328  
     211A      5.273753   212A      5.320495   213A      5.414982  
     214A      5.660488   215A      5.817711   216A      9.935971  
     217A      9.943771   218A      9.963423   219A     23.502324  
     220A     23.874509   221A     23.955748   222A     25.953186  
     223A     25.996968   224A     26.008669   225A     26.021057  
     226A     26.098843   227A     26.102002   228A     26.528418  
     229A     26.551086   230A     26.815627   231A     49.963370  
     232A     50.133080   233A    216.036856   234A    216.045377  
     235A    216.076879  

    Final Occupation by Irrep:
              A 
    DOCC [    45 ]

  Energy converged.

  @DF-RKS Final Energy: -1648.25029705544625

   => Energetics <=

    Nuclear Repulsion Energy =            678.8853769945030763
    One-Electron Energy =               -3622.3541744578478756
    Two-Electron Energy =                1352.3198612621347365
    DFT Exchange-Correlation Energy =     -57.1013608542362903
    Empirical Dispersion Energy =           0.0000000000000000
    VV10 Nonlocal Energy =                  0.0000000000000000
    Total Energy =                      -1648.2502970554462536



Properties will be evaluated at   0.000000,   0.000000,   0.000000 [a0]

Properties computed using the SCF density matrix

  Nuclear Dipole Moment: [e a0]
     X:     4.0525      Y:     8.7136      Z:   -11.8105

  Electronic Dipole Moment: [e a0]
     X:    -2.8600      Y:    -7.2315      Z:    11.1386

  Dipole Moment: [e a0]
     X:     1.1925      Y:     1.4821      Z:    -0.6719     Total:     2.0174

  Dipole Moment: [D]
     X:     3.0309      Y:     3.7671      Z:    -1.7077     Total:     5.1277


*** tstop() called on localhost.localdomain at Wed Apr 10 13:08:43 2019
Module time:
	user time   =     302.33 seconds =       5.04 minutes
	system time =       9.47 seconds =       0.16 minutes
	total time  =         11 seconds =       0.18 minutes
Total time:
	user time   =     302.33 seconds =       5.04 minutes
	system time =       9.47 seconds =       0.16 minutes
	total time  =         11 seconds =       0.18 minutes
  ==> One Electron Grid Properties (v2.0) <==

  ==> CubicScalarGrid <==

    Filepath     = .
    Total Points =           538720
    XYZ Blocking =               10
    X Points     =               74
    Y Points     =               91
    Z Points     =               80
    X Spacing    =        2.000E-01
    Y Spacing    =        2.000E-01
    Z Spacing    =        2.000E-01
    X Minimum    =       -6.871E+00
    Y Minimum    =       -7.980E+00
    Z Minimum    =       -9.605E+00
    X Maximum    =        7.729E+00
    Y Maximum    =        1.002E+01
    Z Maximum    =        6.195E+00

  Basis Set: 6-311++G(D,P)
    Blend: 6-311++G(D,P)
    Number of shells: 117
    Number of basis function: 235
    Number of Cartesian functions: 243
    Spherical Harmonics?: true
    Max angular momentum: 2


    Psi4 stopped on: Wednesday, 10 April 2019 01:08PM
    Psi4 wall time for execution: 0:00:20.00

*** Psi4 exiting successfully. Buy a developer a beer!
