
    -----------------------------------------------------------------------
          Psi4: An Open-Source Ab Initio Electronic Structure Package
                               Psi4 1.2.1 release

                         Git: Rev {HEAD} 406f4de 


    R. M. Parrish, L. A. Burns, D. G. A. Smith, A. C. Simmonett,
    A. E. DePrince III, E. G. Hohenstein, U. Bozkaya, A. Yu. Sokolov,
    R. Di Remigio, R. M. Richard, J. F. Gonthier, A. M. James,
    H. R. McAlexander, A. Kumar, M. Saitow, X. Wang, B. P. Pritchard,
    P. Verma, H. F. Schaefer III, K. Patkowski, R. A. King, E. F. Valeev,
    F. A. Evangelista, J. M. Turney, T. D. Crawford, and C. D. Sherrill,
    J. Chem. Theory Comput. 13(7) pp 3185--3197 (2017).
    (doi: 10.1021/acs.jctc.7b00174)


                         Additional Contributions by
    P. Kraus, H. Kruse, M. H. Lechner, M. C. Schieber, and R. A. Shaw

    -----------------------------------------------------------------------


    Psi4 started on: Monday, 13 May 2019 12:02PM

    Process ID: 22123
    Host:       localhost.localdomain
    PSIDATADIR: /root/psi4conda/share/psi4
    Memory:     500.0 MiB
    Threads:    1
    
  ==> Input File <==

--------------------------------------------------------------------------
molecule{
0 1
 C   -0.039339400270   -0.371351635036   -1.203178500889
 O   -1.026060665801   -0.485518701393   -1.856024595470
CL    1.397247960597    0.364338383748    1.021877543185
CL   -1.501870162094    0.299297659256    1.027538840858
 H    1.149367013301    3.375337596336   -2.418305155906
 C    1.176798298330    2.339582245984   -2.071710921269
 H    1.206378673362    1.672104951450   -2.940325695931
 H    2.080091195959    2.192942810134   -1.480092829510
 O    0.083009504860    2.044835874975   -1.219577809129
 H   -0.742739445086    2.161065526535   -1.700964604154
 C   -0.047371818938   -0.411708628119    0.345552674809
CL    0.027050460457   -2.171369986417    0.655192952413
 H    0.985862189687   -0.367822019369   -1.611921656544 
}

set{
   basis 6-311++G(d,p)
   freeze_core True
}


set_num_threads(32)
optimize('m06-2x')
--------------------------------------------------------------------------
  Threads set to 32 by Python driver.
gradient() will perform analytic gradient computation.

*** tstart() called on localhost.localdomain
*** at Mon May 13 12:02:14 2019

   => Loading Basis Set <=

    Name: 6-311++G(D,P)
    Role: ORBITAL
    Keyword: BASIS
    atoms 1, 6, 11       entry C          line   119 file /root/psi4conda/share/psi4/basis/6-311ppg_d_p_.gbs 
    atoms 2, 9           entry O          line   161 file /root/psi4conda/share/psi4/basis/6-311ppg_d_p_.gbs 
    atoms 3-4, 12        entry CL         line   458 file /root/psi4conda/share/psi4/basis/6-311ppg_d_p_.gbs 
    atoms 5, 7-8, 10, 13 entry H          line    42 file /root/psi4conda/share/psi4/basis/6-311ppg_d_p_.gbs 


         ---------------------------------------------------------
                                   SCF
            by Justin Turney, Rob Parrish, Andy Simmonett
                             and Daniel Smith
                              RKS Reference
                       32 Threads,    500 MiB Core
         ---------------------------------------------------------

  ==> Geometry <==

    Molecular point group: c1
    Full point group: C1

    Geometry (in Angstrom), charge = 0, multiplicity = 1:

       Center              X                  Y                   Z               Mass       
    ------------   -----------------  -----------------  -----------------  -----------------
         C           -0.039339400270    -0.371351635036    -1.203178500889    12.000000000000
         O           -1.026060665801    -0.485518701393    -1.856024595470    15.994914619560
         CL           1.397247960597     0.364338383748     1.021877543185    34.968852682000
         CL          -1.501870162094     0.299297659256     1.027538840858    34.968852682000
         H            1.149367013301     3.375337596336    -2.418305155906     1.007825032070
         C            1.176798298330     2.339582245984    -2.071710921269    12.000000000000
         H            1.206378673362     1.672104951450    -2.940325695931     1.007825032070
         H            2.080091195959     2.192942810134    -1.480092829510     1.007825032070
         O            0.083009504860     2.044835874975    -1.219577809129    15.994914619560
         H           -0.742739445086     2.161065526535    -1.700964604154     1.007825032070
         C           -0.047371818938    -0.411708628119     0.345552674809    12.000000000000
         CL           0.027050460457    -2.171369986417     0.655192952413    34.968852682000
         H            0.985862189687    -0.367822019369    -1.611921656544     1.007825032070

  Running in c1 symmetry.

  Rotational constants: A =      0.04866  B =      0.02849  C =      0.02658 [cm^-1]
  Rotational constants: A =   1458.92165  B =    854.08422  C =    796.94503 [MHz]
  Nuclear repulsion =  659.672359593263536

  Charge       = 0
  Multiplicity = 1
  Electrons    = 90
  Nalpha       = 45
  Nbeta        = 45

  ==> Algorithm <==

  SCF Algorithm Type is DF.
  DIIS enabled.
  MOM disabled.
  Fractional occupation disabled.
  Guess Type is SAD.
  Energy threshold   = 1.00e-08
  Density threshold  = 1.00e-08
  Integral threshold = 0.00e+00

  ==> Primary Basis <==

  Basis Set: 6-311++G(D,P)
    Blend: 6-311++G(D,P)
    Number of shells: 117
    Number of basis function: 235
    Number of Cartesian functions: 243
    Spherical Harmonics?: true
    Max angular momentum: 2

  ==> DFT Potential <==

   => Composite Functional: M06-2X <= 

    Hybrid M06-2X Meta-GGA XC Functional

    Y. Zhao and D. G. Truhlar,  Theor. Chem. Acc., 120, 215, 2008


    Deriv               =              1
    GGA                 =           TRUE
    Meta                =           TRUE

    Exchange Hybrid     =           TRUE
    MP2 Hybrid          =          FALSE

   => Exchange Functionals <=

    1.0000   XC_HYB_MGGA_X_M06_2X

   => Exact (HF) Exchange <=

    0.5400               HF 

   => Correlation Functionals <=

    1.0000   XC_MGGA_C_M06_2X

   => Molecular Quadrature <=

    Radial Scheme       =       TREUTLER
    Pruning Scheme      =           FLAT
    Nuclear Scheme      =       TREUTLER

    BS radius alpha     =              1
    Pruning alpha       =              1
    Radial Points       =             75
    Spherical Points    =            302
    Total Points        =         294161
    Total Blocks        =           2270
    Max Points          =            256
    Max Functions       =            205

   => Loading Basis Set <=

    Name: (6-311++G(D,P) AUX)
    Role: JKFIT
    Keyword: DF_BASIS_SCF
    atoms 1, 6, 11       entry C          line   162 file /root/psi4conda/share/psi4/basis/aug-cc-pvtz-jkfit.gbs 
    atoms 2, 9           entry O          line   286 file /root/psi4conda/share/psi4/basis/aug-cc-pvtz-jkfit.gbs 
    atoms 3-4, 12        entry CL         line   816 file /root/psi4conda/share/psi4/basis/aug-cc-pvtz-jkfit.gbs 
    atoms 5, 7-8, 10, 13 entry H          line    70 file /root/psi4conda/share/psi4/basis/aug-cc-pvtz-jkfit.gbs 

  ==> Pre-Iterations <==

   -------------------------------------------------------
    Irrep   Nso     Nmo     Nalpha   Nbeta   Ndocc  Nsocc
   -------------------------------------------------------
     A        235     235       0       0       0       0
   -------------------------------------------------------
    Total     235     235      45      45      45       0
   -------------------------------------------------------

  ==> Integral Setup <==

  ==> DiskDFJK: Density-Fitted J/K Matrices <==

    J tasked:                  Yes
    K tasked:                  Yes
    wK tasked:                  No
    OpenMP threads:             32
    Integrals threads:          32
    Memory (MB):               375
    Algorithm:                Core
    Integral Cache:           NONE
    Schwarz Cutoff:          1E-12
    Fitting Condition:       1E-12

   => Auxiliary Basis Set <=

  Basis Set: (6-311++G(D,P) AUX)
    Blend: AUG-CC-PVTZ-JKFIT
    Number of shells: 346
    Number of basis function: 1188
    Number of Cartesian functions: 1470
    Spherical Harmonics?: true
    Max angular momentum: 4

  Minimum eigenvalue in the overlap matrix is 2.3307520611E-05.
  Using Symmetric Orthogonalization.

  SCF Guess: Superposition of Atomic Densities via on-the-fly atomic UHF.

  ==> Iterations <==

                           Total Energy        Delta E     RMS |[F,P]|

   @DF-RKS iter   0: -1649.86876582908781   -1.64987e+03   1.03715e-01 
   @DF-RKS iter   1: -1648.04925763065580    1.81951e+00   1.66379e-02 
   @DF-RKS iter   2: -1647.85081032929861    1.98447e-01   2.59696e-02 DIIS
   @DF-RKS iter   3: -1648.28647069915905   -4.35660e-01   2.30064e-03 DIIS
   @DF-RKS iter   4: -1648.28908126814599   -2.61057e-03   1.93469e-03 DIIS
   @DF-RKS iter   5: -1648.29166878052456   -2.58751e-03   3.72763e-04 DIIS
   @DF-RKS iter   6: -1648.29177230040705   -1.03520e-04   1.26653e-04 DIIS
   @DF-RKS iter   7: -1648.29178828092222   -1.59805e-05   4.55040e-05 DIIS
   @DF-RKS iter   8: -1648.29179050807807   -2.22716e-06   1.58252e-05 DIIS
   @DF-RKS iter   9: -1648.29179086348631   -3.55408e-07   4.58351e-06 DIIS
   @DF-RKS iter  10: -1648.29179092233016   -5.88439e-08   1.52005e-06 DIIS
   @DF-RKS iter  11: -1648.29179093402627   -1.16961e-08   3.93001e-07 DIIS
   @DF-RKS iter  12: -1648.29179093536163   -1.33537e-09   1.64329e-07 DIIS
   @DF-RKS iter  13: -1648.29179093544371   -8.20819e-11   1.18975e-07 DIIS
   @DF-RKS iter  14: -1648.29179093546077   -1.70530e-11   1.99661e-08 DIIS
   @DF-RKS iter  15: -1648.29179093546099   -2.27374e-13   9.48172e-09 DIIS

  ==> Post-Iterations <==

    Orbital Energies [Eh]
    ---------------------

    Doubly Occupied:                                                      

       1A   -102.702396     2A   -102.701598     3A   -102.698876  
       4A    -19.655865     5A    -19.648807     6A    -10.736564  
       7A    -10.674391     8A    -10.598706     9A     -9.844971  
      10A     -9.844282    11A     -9.841466    12A     -7.570282  
      13A     -7.569660    14A     -7.566980    15A     -7.562970  
      16A     -7.562740    17A     -7.562305    18A     -7.562078  
      19A     -7.559344    20A     -7.559262    21A     -1.219492  
      22A     -1.171024    23A     -1.060014    24A     -0.946807  
      25A     -0.945233    26A     -0.800388    27A     -0.798941  
      28A     -0.677162    29A     -0.612348    30A     -0.603247  
      31A     -0.571549    32A     -0.570105    33A     -0.541603  
      34A     -0.528893    35A     -0.522270    36A     -0.488877  
      37A     -0.436525    38A     -0.425741    39A     -0.422375  
      40A     -0.421643    41A     -0.392509    42A     -0.391172  
      43A     -0.377392    44A     -0.376369    45A     -0.357106  

    Virtual:                                                              

      46A     -0.019399    47A     -0.009376    48A      0.000539  
      49A      0.008619    50A      0.016042    51A      0.027027  
      52A      0.036685    53A      0.043752    54A      0.050021  
      55A      0.056232    56A      0.059940    57A      0.064732  
      58A      0.074596    59A      0.086835    60A      0.094172  
      61A      0.099939    62A      0.106036    63A      0.113703  
      64A      0.117505    65A      0.120772    66A      0.129181  
      67A      0.133583    68A      0.138382    69A      0.140192  
      70A      0.142562    71A      0.147860    72A      0.152912  
      73A      0.163034    74A      0.174120    75A      0.181559  
      76A      0.192702    77A      0.211141    78A      0.214254  
      79A      0.227120    80A      0.237757    81A      0.248099  
      82A      0.264207    83A      0.267441    84A      0.286729  
      85A      0.299619    86A      0.304465    87A      0.311747  
      88A      0.318979    89A      0.333089    90A      0.341543  
      91A      0.347237    92A      0.370454    93A      0.408917  
      94A      0.417133    95A      0.440043    96A      0.441863  
      97A      0.448280    98A      0.465438    99A      0.480029  
     100A      0.490213   101A      0.491493   102A      0.496716  
     103A      0.511109   104A      0.515260   105A      0.527351  
     106A      0.547766   107A      0.562148   108A      0.572401  
     109A      0.581732   110A      0.598776   111A      0.624666  
     112A      0.645216   113A      0.661837   114A      0.685748  
     115A      0.694042   116A      0.706868   117A      0.752175  
     118A      0.840629   119A      0.884832   120A      0.897732  
     121A      0.910113   122A      0.915111   123A      0.922727  
     124A      0.932422   125A      0.939978   126A      0.949619  
     127A      0.959756   128A      0.972865   129A      0.979927  
     130A      1.013253   131A      1.020169   132A      1.034706  
     133A      1.056583   134A      1.070416   135A      1.088215  
     136A      1.127220   137A      1.154480   138A      1.164688  
     139A      1.199066   140A      1.216247   141A      1.237373  
     142A      1.254392   143A      1.277228   144A      1.297749  
     145A      1.319734   146A      1.339645   147A      1.370991  
     148A      1.404383   149A      1.474464   150A      1.487929  
     151A      1.523982   152A      1.537785   153A      1.573875  
     154A      1.586990   155A      1.610568   156A      1.623078  
     157A      1.670821   158A      1.689671   159A      1.730972  
     160A      1.735316   161A      1.758751   162A      1.808689  
     163A      1.839779   164A      1.844407   165A      1.890987  
     166A      1.998976   167A      2.034487   168A      2.043924  
     169A      2.090579   170A      2.155524   171A      2.233762  
     172A      2.287702   173A      2.294560   174A      2.314218  
     175A      2.344628   176A      2.348632   177A      2.354897  
     178A      2.382457   179A      2.450847   180A      2.475991  
     181A      2.498448   182A      2.511038   183A      2.526798  
     184A      2.544221   185A      2.549291   186A      2.586837  
     187A      2.615334   188A      2.680916   189A      2.758149  
     190A      2.839750   191A      2.912114   192A      2.936089  
     193A      2.940940   194A      3.046761   195A      3.064405  
     196A      3.110376   197A      3.138674   198A      3.173202  
     199A      3.258915   200A      3.326488   201A      3.411301  
     202A      3.528974   203A      3.594258   204A      3.783997  
     205A      3.800498   206A      3.830481   207A      3.964466  
     208A      3.982153   209A      4.084321   210A      5.164778  
     211A      5.236721   212A      5.257341   213A      5.525162  
     214A      5.730501   215A      5.795982   216A      9.929356  
     217A      9.944712   218A      9.977569   219A     23.502784  
     220A     23.936967   221A     23.987606   222A     25.955114  
     223A     25.989854   224A     26.002474   225A     26.006733  
     226A     26.081166   227A     26.108413   228A     26.514760  
     229A     26.549924   230A     26.809666   231A     50.002940  
     232A     50.073157   233A    216.025861   234A    216.045705  
     235A    216.100992  

    Final Occupation by Irrep:
              A 
    DOCC [    45 ]

  Energy converged.

  @DF-RKS Final Energy: -1648.29179093546099

   => Energetics <=

    Nuclear Repulsion Energy =            659.6723595932635362
    One-Electron Energy =               -3584.1767405464051990
    Two-Electron Energy =                1333.2883039635748901
    DFT Exchange-Correlation Energy =     -57.0757139458942859
    Empirical Dispersion Energy =           0.0000000000000000
    VV10 Nonlocal Energy =                  0.0000000000000000
    Total Energy =                      -1648.2917909354609947



Properties will be evaluated at   0.000000,   0.000000,   0.000000 [a0]

Properties computed using the SCF density matrix

  Nuclear Dipole Moment: [e a0]
     X:     4.4529      Y:     9.8565      Z:   -12.0075

  Electronic Dipole Moment: [e a0]
     X:    -3.7736      Y:    -9.1658      Z:    11.3321

  Dipole Moment: [e a0]
     X:     0.6793      Y:     0.6907      Z:    -0.6754     Total:     1.1809

  Dipole Moment: [D]
     X:     1.7266      Y:     1.7555      Z:    -1.7166     Total:     3.0016


*** tstop() called on localhost.localdomain at Mon May 13 12:02:29 2019
Module time:
	user time   =     378.94 seconds =       6.32 minutes
	system time =      11.04 seconds =       0.18 minutes
	total time  =         15 seconds =       0.25 minutes
Total time:
	user time   =     378.94 seconds =       6.32 minutes
	system time =      11.04 seconds =       0.18 minutes
	total time  =         15 seconds =       0.25 minutes

*** tstart() called on localhost.localdomain
*** at Mon May 13 12:02:29 2019


         ------------------------------------------------------------
                                   SCF GRAD                          
                          Rob Parrish, Justin Turney,                
                       Andy Simmonett, and Alex Sokolov              
         ------------------------------------------------------------

  ==> Geometry <==

    Molecular point group: c1
    Full point group: C1

    Geometry (in Angstrom), charge = 0, multiplicity = 1:

       Center              X                  Y                   Z               Mass       
    ------------   -----------------  -----------------  -----------------  -----------------
         C           -0.039339400270    -0.371351635036    -1.203178500889    12.000000000000
         O           -1.026060665801    -0.485518701393    -1.856024595470    15.994914619560
         CL           1.397247960597     0.364338383748     1.021877543185    34.968852682000
         CL          -1.501870162094     0.299297659256     1.027538840858    34.968852682000
         H            1.149367013301     3.375337596336    -2.418305155906     1.007825032070
         C            1.176798298330     2.339582245984    -2.071710921269    12.000000000000
         H            1.206378673362     1.672104951450    -2.940325695931     1.007825032070
         H            2.080091195959     2.192942810134    -1.480092829510     1.007825032070
         O            0.083009504860     2.044835874975    -1.219577809129    15.994914619560
         H           -0.742739445086     2.161065526535    -1.700964604154     1.007825032070
         C           -0.047371818938    -0.411708628119     0.345552674809    12.000000000000
         CL           0.027050460457    -2.171369986417     0.655192952413    34.968852682000
         H            0.985862189687    -0.367822019369    -1.611921656544     1.007825032070

  Nuclear repulsion =  659.672359593263536

  ==> Basis Set <==

  Basis Set: 6-311++G(D,P)
    Blend: 6-311++G(D,P)
    Number of shells: 117
    Number of basis function: 235
    Number of Cartesian functions: 243
    Spherical Harmonics?: true
    Max angular momentum: 2

  ==> DFJKGrad: Density-Fitted SCF Gradients <==

    Gradient:                    1
    J tasked:                  Yes
    K tasked:                  Yes
    wK tasked:                  No
    OpenMP threads:             32
    Integrals threads:          32
    Memory (MB):               375
    Schwarz Cutoff:          0E+00
    Fitting Condition:       1E-12

   => Auxiliary Basis Set <=

  Basis Set: (6-311++G(D,P) AUX)
    Blend: AUG-CC-PVTZ-JKFIT
    Number of shells: 346
    Number of basis function: 1188
    Number of Cartesian functions: 1470
    Spherical Harmonics?: true
    Max angular momentum: 4

  ==> DFT Potential <==

   => Composite Functional: M06-2X <= 

    Hybrid M06-2X Meta-GGA XC Functional

    Y. Zhao and D. G. Truhlar,  Theor. Chem. Acc., 120, 215, 2008


    Deriv               =              1
    GGA                 =           TRUE
    Meta                =           TRUE

    Exchange Hybrid     =           TRUE
    MP2 Hybrid          =          FALSE

   => Exchange Functionals <=

    1.0000   XC_HYB_MGGA_X_M06_2X

   => Exact (HF) Exchange <=

    0.5400               HF 

   => Correlation Functionals <=

    1.0000   XC_MGGA_C_M06_2X

   => Molecular Quadrature <=

    Radial Scheme       =       TREUTLER
    Pruning Scheme      =           FLAT
    Nuclear Scheme      =       TREUTLER

    BS radius alpha     =              1
    Pruning alpha       =              1
    Radial Points       =             75
    Spherical Points    =            302
    Total Points        =         294161
    Total Blocks        =           2270
    Max Points          =            256
    Max Functions       =            205


  -Total Gradient:
     Atom            X                  Y                   Z
    ------   -----------------  -----------------  -----------------
       1        0.000094558522     0.000812265426     0.000042798339
       2        0.000183951050     0.000178342865     0.000051713646
       3        0.000026971231     0.000687004337     0.003006659795
       4        0.000561240622     0.001482400338     0.001562264805
       5       -0.000121968694    -0.000140693631     0.000010632410
       6       -0.000310614188    -0.001517540692     0.000477444724
       7        0.000115481517    -0.000147657876     0.000061632614
       8       -0.000071527677    -0.000007595097     0.000112356460
       9       -0.000248174491    -0.003651680916    -0.000280617664
      10       -0.000791616346    -0.000214610618    -0.000537224126
      11        0.000099737335     0.000760708231     0.000054162697
      12        0.000242742047     0.001545669752    -0.004354237842
      13        0.000013142368     0.000039995359     0.000013828289


*** tstop() called on localhost.localdomain at Mon May 13 12:02:34 2019
Module time:
	user time   =     137.24 seconds =       2.29 minutes
	system time =       4.28 seconds =       0.07 minutes
	total time  =          5 seconds =       0.08 minutes
Total time:
	user time   =     516.23 seconds =       8.60 minutes
	system time =      15.32 seconds =       0.26 minutes
	total time  =         20 seconds =       0.33 minutes

			-----------------------------------------
			 OPTKING 2.0: for geometry optimizations 
			  - R.A. King,  Bethel University        
			-----------------------------------------

	Internal coordinates to be generated automatically.
	Detected frag 1 with atoms:  1 2 3 4 11 12 13
	Detected frag 2 with atoms:  5 6 7 8 9 10
	Unifying fragments since fragment_mode == SINGLE
	Connecting fragments 1 and 2
	---Fragment 1 Bond Connectivity---
	 1 : 2 9 11 13
	 2 : 1
	 3 : 11
	 4 : 11
	 5 : 6
	 6 : 5 7 8 9
	 7 : 6
	 8 : 6
	 9 : 1 6 10
	 10 : 9
	 11 : 1 3 4 12
	 12 : 11
	 13 : 1

	---Fragment 1 Geometry and Gradient---
	 C          -0.0743406927       -0.7017528892       -2.2736778557
	 O          -1.9389736541       -0.9174973780       -3.5073781813
	 CL          2.6404159853        0.6884997650        1.9310686980
	 CL         -2.8381232935        0.5655906082        1.9417670001
	 H           2.1719888813        6.3784636631       -4.5699344504
	 C           2.2238264975        4.4211697103       -3.9149662677
	 H           2.2797253052        3.1598204237       -5.5564103068
	 H           3.9308026918        4.1440613362       -2.7969700990
	 O           0.1568652306        3.8641797904       -2.3046680570
	 H          -1.4035741393        4.0838220004       -3.2143572636
	 C          -0.0895197642       -0.7780165537        0.6529999199
	 CL          0.0511179620       -4.1032946075        1.2381352443
	 H           1.8630095433       -0.6950828823       -3.0460904785
	             0.0000945585        0.0008122654        0.0000427983
	             0.0001839510        0.0001783429        0.0000517136
	             0.0000269712        0.0006870043        0.0030066598
	             0.0005612406        0.0014824003        0.0015622648
	            -0.0001219687       -0.0001406936        0.0000106324
	            -0.0003106142       -0.0015175407        0.0004774447
	             0.0001154815       -0.0001476579        0.0000616326
	            -0.0000715277       -0.0000075951        0.0001123565
	            -0.0002481745       -0.0036516809       -0.0002806177
	            -0.0007916163       -0.0002146106       -0.0005372241
	             0.0000997373        0.0007607082        0.0000541627
	             0.0002427420        0.0015456698       -0.0043542378
	             0.0000131424        0.0000399954        0.0000138283

	Previous optimization step data not found.  Starting new optimization.

	---Fragment 1 Intrafragment Coordinates---
	 - Coordinate -           - BOHR/RAD -       - ANG/DEG -
	 R(1,2)           =         2.246201	       1.188638
	 R(1,9)           =         4.571888	       2.419339
	 R(1,11)          =         2.927711	       1.549278
	 R(1,13)          =         2.085663	       1.103686
	 R(3,11)          =         3.352116	       1.773863
	 R(4,11)          =         3.319792	       1.756759
	 R(5,6)           =         2.064623	       1.092552
	 R(6,7)           =         2.070861	       1.095852
	 R(6,8)           =         2.059241	       1.089703
	 R(6,9)           =         2.678736	       1.417526
	 R(9,10)          =         1.819546	       0.962862
	 R(11,12)         =         3.379295	       1.788246
	 B(1,9,6)         =         1.824257	     104.522237
	 B(1,9,10)        =         1.651458	      94.621590
	 B(1,11,3)        =         1.944987	     111.439547
	 B(1,11,4)        =         1.962561	     112.446468
	 B(1,11,12)       =         1.770632	     101.449767
	 B(2,1,9)         =         1.705383	      97.711269
	 B(2,1,11)        =         2.143896	     122.836190
	 B(2,1,13)        =         2.174866	     124.610629
	 B(3,11,4)        =         1.927508	     110.438084
	 B(3,11,12)       =         1.907720	     109.304300
	 B(4,11,12)       =         1.944960	     111.438018
	 B(5,6,7)         =         1.903560	     109.065960
	 B(5,6,8)         =         1.897177	     108.700224
	 B(5,6,9)         =         1.948137	     111.620035
	 B(6,9,10)        =         1.913565	     109.639177
	 B(7,6,8)         =         1.902862	     109.025957
	 B(7,6,9)         =         1.950523	     111.756746
	 B(8,6,9)         =         1.860085	     106.575035
	 B(9,1,11)        =         1.603856	      91.894154
	 B(9,1,13)        =         1.518093	      86.980303
	 B(11,1,13)       =         1.955314	     112.031263
	 D(1,9,6,5)       =         2.825178	     161.870766
	 D(1,9,6,7)       =         0.688096	      39.424998
	 D(1,9,6,8)       =        -1.389067	     -79.587698
	 D(2,1,9,6)       =        -1.885238	    -108.016164
	 D(2,1,9,10)      =         0.063771	       3.653831
	 D(2,1,11,3)      =        -2.772023	    -158.825242
	 D(2,1,11,4)      =        -0.596988	     -34.204907
	 D(2,1,11,12)     =         1.482641	      84.949062
	 D(3,11,1,9)      =        -1.019095	     -58.389852
	 D(3,11,1,13)     =         0.508210	      29.118293
	 D(4,11,1,9)      =         1.155940	      66.230483
	 D(4,11,1,13)     =         2.683245	     153.738627
	 D(5,6,9,10)      =         1.072570	      61.453740
	 D(6,9,1,11)      =         2.242433	     128.481943
	 D(6,9,1,13)      =         0.288216	      16.513566
	 D(7,6,9,10)      =        -1.064512	     -60.992028
	 D(8,6,9,10)      =         3.141510	     179.995276
	 D(9,1,11,12)     =        -3.047616	    -174.615548
	 D(10,9,1,11)     =        -2.091743	    -119.848062
	 D(10,9,1,13)     =         2.237225	     128.183561
	 D(12,11,1,13)    =        -1.520311	     -87.107404
	 R(3,6)           =         6.948561	       3.677020

	Current energy   :     -1648.2917909355

	Generating empirical Hessian (Schlegel '84) for each fragment.
	Taking RFO optimization step.
	Going to follow RFO solution 1.
	Using RFO vector 1.
	Norm of target step-size    0.25532
	Projected energy change by RFO approximation:        -0.0015759357

	Back-transformation to cartesian coordinates...
	Successfully converged to displaced geometry.

	--- Internal Coordinate Step in ANG or DEG, aJ/ANG or AJ/DEG ---
	 ---------------------------------------------------------------------------
	   Coordinate                Previous        Force       Change         New 
	   ----------                --------       ------       ------       ------
	    1 R(1,2)          =      1.188638     0.001601     0.000093     1.188731
	    2 R(1,9)          =      2.419339     0.051602     0.070776     2.490115
	    3 R(1,11)         =      1.549278     0.007524     0.000187     1.549465
	    4 R(1,13)         =      1.103686    -0.000155    -0.000030     1.103656
	    5 R(3,11)         =      1.773863    -0.010994    -0.002719     1.771144
	    6 R(4,11)         =      1.756759    -0.005875    -0.001256     1.755502
	    7 R(5,6)          =      1.092552     0.000937     0.000173     1.092725
	    8 R(6,7)          =      1.095852    -0.000427    -0.000080     1.095773
	    9 R(6,8)          =      1.089703     0.000020     0.000004     1.089707
	   10 R(6,9)          =      1.417526     0.013523     0.001361     1.418887
	   11 R(9,10)         =      0.962862    -0.007480    -0.000873     0.961990
	   12 R(11,12)        =      1.788246     0.018735     0.004414     1.792660
	   13 B(1,9,6)        =    104.522237     0.000374     0.986744   105.508982
	   14 B(1,9,10)       =     94.621590    -0.000057     0.184639    94.806229
	   15 B(1,11,3)       =    111.439547    -0.000312    -1.483209   109.956338
	   16 B(1,11,4)       =    112.446468    -0.000283    -0.898297   111.548171
	   17 B(1,11,12)      =    101.449767     0.000804     2.662418   104.112186
	   18 B(2,1,9)        =     97.711269     0.000024     0.258949    97.970218
	   19 B(2,1,11)       =    122.836190    -0.000053    -0.098250   122.737940
	   20 B(2,1,13)       =    124.610629     0.000002     0.020745   124.631375
	   21 B(3,11,4)       =    110.438084     0.000294     0.579104   111.017187
	   22 B(3,11,12)      =    109.304300    -0.000216    -0.176941   109.127359
	   23 B(4,11,12)      =    111.438018    -0.000277    -0.588500   110.849518
	   24 B(5,6,7)        =    109.065960    -0.000004    -0.059927   109.006033
	   25 B(5,6,8)        =    108.700224    -0.000008    -0.026873   108.673351
	   26 B(5,6,9)        =    111.620035     0.000005     0.002251   111.622285
	   27 B(6,9,10)       =    109.639177    -0.000086    -0.198843   109.440334
	   28 B(7,6,8)        =    109.025957     0.000001     0.012449   109.038406
	   29 B(7,6,9)        =    111.756746    -0.000004     0.012656   111.769402
	   30 B(8,6,9)        =    106.575035     0.000011     0.061484   106.636518
	   31 B(9,1,11)       =     91.894154    -0.000020    -0.767782    91.126372
	   32 B(9,1,13)       =     86.980303     0.000002    -0.153852    86.826451
	   33 B(11,1,13)      =    112.031263     0.000050     0.163855   112.195119
	   34 D(1,9,6,5)      =    161.870766     0.000008     1.361000   163.231766
	   35 D(1,9,6,7)      =     39.424998     0.000009     1.427942    40.852940
	   36 D(1,9,6,8)      =    -79.587698     0.000008     1.367436   -78.220261
	   37 D(2,1,9,6)      =   -108.016164     0.000009     3.160908  -104.855257
	   38 D(2,1,9,10)     =      3.653831     0.000001     3.203604     6.857435
	   39 D(2,1,11,3)     =   -158.825242     0.000009     3.558610  -155.266631
	   40 D(2,1,11,4)     =    -34.204907    -0.000006     2.553683   -31.651224
	   41 D(2,1,11,12)    =     84.949062    -0.000003     2.993258    87.942320
	   42 D(3,11,1,9)     =    -58.389852     0.000011     3.348321   -55.041531
	   43 D(3,11,1,13)    =     29.118293     0.000010     2.872031    31.990324
	   44 D(4,11,1,9)     =     66.230483    -0.000005     2.343394    68.573876
	   45 D(4,11,1,13)    =    153.738627    -0.000006     1.867104   155.605731
	   46 D(5,6,9,10)     =     61.453740    -0.000006     0.816507    62.270247
	   47 D(6,9,1,11)     =    128.481943     0.000022     3.369115   131.851058
	   48 D(6,9,1,13)     =     16.513566     0.000010     3.169400    19.682967
	   49 D(7,6,9,10)     =    -60.992028    -0.000005     0.883449   -60.108579
	   50 D(8,6,9,10)     =    179.995276    -0.000006     0.822943   180.818219
	   51 D(9,1,11,12)    =   -174.615548    -0.000001     2.782969  -171.832579
	   52 D(10,9,1,11)    =   -119.848062     0.000013     3.411812  -116.436250
	   53 D(10,9,1,13)    =    128.183561     0.000002     3.212097   131.395658
	   54 D(12,11,1,13)   =    -87.107404    -0.000002     2.306679   -84.800724
	   55 R(3,6)          =      3.677020    -0.009483    -0.007116     3.669904
	 ---------------------------------------------------------------------------
	Successfully symmetrized geometry.

  ==> Convergence Check <==

  Measures of convergence in internal coordinates in au.
  Criteria marked as inactive (o), active & met (*), and active & unmet ( ).
  --------------------------------------------------------------------------------------------- ~
   Step     Total Energy     Delta E     MAX Force     RMS Force      MAX Disp      RMS Disp    ~
  --------------------------------------------------------------------------------------------- ~
    Convergence Criteria    1.00e-06 *    3.00e-04 *             o    1.20e-03 *             o  ~
  --------------------------------------------------------------------------------------------- ~
      1   -1648.29179094   -1.65e+03      1.06e-02      2.19e-03 o    1.34e-01      3.44e-02 o  ~
  ---------------------------------------------------------------------------------------------

	Writing optimization data to binary file.
	Structure for next step:
	Cartesian Geometry (in Angstrom)
	    C    -0.0102003139  -0.4300181789  -1.1784166707
	    O    -0.9843783205  -0.5631531710  -1.8464987005
	   CL     1.3399667077   0.4618112417   1.0108247994
	   CL    -1.5576455556   0.2345043397   0.9767025718
	    H     1.1148678106   3.4143165649  -2.4430065510
	    C     1.1599441982   2.3721809128  -2.1174770827
	    H     1.1542123974   1.7221944000  -2.9996348183
	    H     2.0884925573   2.2180305389  -1.5683897684
	    O     0.1030259620   2.0570892081  -1.2247944675
	    H    -0.7399432994   2.1677716917  -1.6748796302
	    C    -0.0499894606  -0.4298186279   0.3705369875
	   CL     0.1080479129  -2.1600547424   0.8120522681
	    H     1.0220232083  -0.4231200995  -1.5689586951
			--------------------------
			 OPTKING Finished Execution 
			--------------------------

    Structure for next step:
    Molecular point group: c1
    Full point group: C1

    Geometry (in Angstrom), charge = 0, multiplicity = 1:

    C           -0.009875406605    -0.430179046799    -1.197151664081
    O           -0.984053413207    -0.563314038885    -1.865233693886
    CL           1.340291615014     0.461650373720     0.992089805988
    CL          -1.557320648317     0.234343471758     0.957967578401
    H            1.115192717929     3.414155696943    -2.461741544434
    C            1.160269105546     2.372020044859    -2.136212076108
    H            1.154537304764     1.722033532104    -3.018369811638
    H            2.088817464605     2.217869670938    -1.587124761782
    O            0.103350869340     2.056928340159    -1.243529460855
    H           -0.739618392025     2.167610823770    -1.693614623554
    C           -0.049664553240    -0.429979495830     0.351801994148
    CL           0.108372820229    -2.160215610371     0.793317274751
    H            1.022348115620    -0.423280967437    -1.587693688535

gradient() will perform analytic gradient computation.

*** tstart() called on localhost.localdomain
*** at Mon May 13 12:02:34 2019

   => Loading Basis Set <=

    Name: 6-311++G(D,P)
    Role: ORBITAL
    Keyword: BASIS
    atoms 1, 6, 11       entry C          line   119 file /root/psi4conda/share/psi4/basis/6-311ppg_d_p_.gbs 
    atoms 2, 9           entry O          line   161 file /root/psi4conda/share/psi4/basis/6-311ppg_d_p_.gbs 
    atoms 3-4, 12        entry CL         line   458 file /root/psi4conda/share/psi4/basis/6-311ppg_d_p_.gbs 
    atoms 5, 7-8, 10, 13 entry H          line    42 file /root/psi4conda/share/psi4/basis/6-311ppg_d_p_.gbs 


         ---------------------------------------------------------
                                   SCF
            by Justin Turney, Rob Parrish, Andy Simmonett
                             and Daniel Smith
                              RKS Reference
                       32 Threads,    500 MiB Core
         ---------------------------------------------------------

  ==> Geometry <==

    Molecular point group: c1
    Full point group: C1

    Geometry (in Angstrom), charge = 0, multiplicity = 1:

       Center              X                  Y                   Z               Mass       
    ------------   -----------------  -----------------  -----------------  -----------------
         C           -0.009875406605    -0.430179046799    -1.197151664081    12.000000000000
         O           -0.984053413207    -0.563314038885    -1.865233693886    15.994914619560
         CL           1.340291615014     0.461650373720     0.992089805988    34.968852682000
         CL          -1.557320648317     0.234343471758     0.957967578401    34.968852682000
         H            1.115192717929     3.414155696943    -2.461741544434     1.007825032070
         C            1.160269105546     2.372020044859    -2.136212076108    12.000000000000
         H            1.154537304764     1.722033532104    -3.018369811638     1.007825032070
         H            2.088817464605     2.217869670938    -1.587124761782     1.007825032070
         O            0.103350869340     2.056928340159    -1.243529460855    15.994914619560
         H           -0.739618392025     2.167610823770    -1.693614623554     1.007825032070
         C           -0.049664553240    -0.429979495830     0.351801994148    12.000000000000
         CL           0.108372820229    -2.160215610371     0.793317274751    34.968852682000
         H            1.022348115620    -0.423280967437    -1.587693688535     1.007825032070

  Running in c1 symmetry.

  Rotational constants: A =      0.04963  B =      0.02791  C =      0.02600 [cm^-1]
  Rotational constants: A =   1487.89814  B =    836.85811  C =    779.48725 [MHz]
  Nuclear repulsion =  657.649249046954992

  Charge       = 0
  Multiplicity = 1
  Electrons    = 90
  Nalpha       = 45
  Nbeta        = 45

  ==> Algorithm <==

  SCF Algorithm Type is DF.
  DIIS enabled.
  MOM disabled.
  Fractional occupation disabled.
  Guess Type is READ.
  Energy threshold   = 1.00e-08
  Density threshold  = 1.00e-08
  Integral threshold = 0.00e+00

  ==> Primary Basis <==

  Basis Set: 6-311++G(D,P)
    Blend: 6-311++G(D,P)
    Number of shells: 117
    Number of basis function: 235
    Number of Cartesian functions: 243
    Spherical Harmonics?: true
    Max angular momentum: 2

  ==> DFT Potential <==

   => Composite Functional: M06-2X <= 

    Hybrid M06-2X Meta-GGA XC Functional

    Y. Zhao and D. G. Truhlar,  Theor. Chem. Acc., 120, 215, 2008


    Deriv               =              1
    GGA                 =           TRUE
    Meta                =           TRUE

    Exchange Hybrid     =           TRUE
    MP2 Hybrid          =          FALSE

   => Exchange Functionals <=

    1.0000   XC_HYB_MGGA_X_M06_2X

   => Exact (HF) Exchange <=

    0.5400               HF 

   => Correlation Functionals <=

    1.0000   XC_MGGA_C_M06_2X

   => Molecular Quadrature <=

    Radial Scheme       =       TREUTLER
    Pruning Scheme      =           FLAT
    Nuclear Scheme      =       TREUTLER

    BS radius alpha     =              1
    Pruning alpha       =              1
    Radial Points       =             75
    Spherical Points    =            302
    Total Points        =         294163
    Total Blocks        =           2253
    Max Points          =            256
    Max Functions       =            208

   => Loading Basis Set <=

    Name: (6-311++G(D,P) AUX)
    Role: JKFIT
    Keyword: DF_BASIS_SCF
    atoms 1, 6, 11       entry C          line   162 file /root/psi4conda/share/psi4/basis/aug-cc-pvtz-jkfit.gbs 
    atoms 2, 9           entry O          line   286 file /root/psi4conda/share/psi4/basis/aug-cc-pvtz-jkfit.gbs 
    atoms 3-4, 12        entry CL         line   816 file /root/psi4conda/share/psi4/basis/aug-cc-pvtz-jkfit.gbs 
    atoms 5, 7-8, 10, 13 entry H          line    70 file /root/psi4conda/share/psi4/basis/aug-cc-pvtz-jkfit.gbs 

  Reading orbitals from file 180, no projection.

  ==> Pre-Iterations <==

   -------------------------------------------------------
    Irrep   Nso     Nmo     Nalpha   Nbeta   Ndocc  Nsocc
   -------------------------------------------------------
     A        235     235       0       0       0       0
   -------------------------------------------------------
    Total     235     235      45      45      45       0
   -------------------------------------------------------

  ==> Integral Setup <==

  ==> DiskDFJK: Density-Fitted J/K Matrices <==

    J tasked:                  Yes
    K tasked:                  Yes
    wK tasked:                  No
    OpenMP threads:             32
    Integrals threads:          32
    Memory (MB):               375
    Algorithm:                Core
    Integral Cache:           NONE
    Schwarz Cutoff:          1E-12
    Fitting Condition:       1E-12

   => Auxiliary Basis Set <=

  Basis Set: (6-311++G(D,P) AUX)
    Blend: AUG-CC-PVTZ-JKFIT
    Number of shells: 346
    Number of basis function: 1188
    Number of Cartesian functions: 1470
    Spherical Harmonics?: true
    Max angular momentum: 4

  Minimum eigenvalue in the overlap matrix is 2.3427628986E-05.
  Using Symmetric Orthogonalization.

  SCF Guess: Orbitals guess was supplied from a previous computation.

  ==> Iterations <==

                           Total Energy        Delta E     RMS |[F,P]|

   @DF-RKS iter   0: -1648.25975252043577   -1.64826e+03   5.61956e-03 
   @DF-RKS iter   1: -1648.29211373264275   -3.23612e-02   6.33453e-04 
   @DF-RKS iter   2: -1648.29240049668829   -2.86764e-04   7.57287e-04 DIIS
   @DF-RKS iter   3: -1648.29287718420505   -4.76688e-04   1.99054e-04 DIIS
   @DF-RKS iter   4: -1648.29291292098014   -3.57368e-05   8.59512e-05 DIIS
   @DF-RKS iter   5: -1648.29292052226310   -7.60128e-06   3.74285e-05 DIIS
   @DF-RKS iter   6: -1648.29292157077316   -1.04851e-06   7.96060e-06 DIIS
   @DF-RKS iter   7: -1648.29292167897006   -1.08197e-07   2.52185e-06 DIIS
   @DF-RKS iter   8: -1648.29292169103815   -1.20681e-08   6.53722e-07 DIIS
   @DF-RKS iter   9: -1648.29292169209566   -1.05751e-09   3.42553e-07 DIIS
   @DF-RKS iter  10: -1648.29292169222231   -1.26647e-10   1.08576e-07 DIIS
   @DF-RKS iter  11: -1648.29292169224459   -2.22826e-11   3.06669e-08 DIIS
   @DF-RKS iter  12: -1648.29292169225118   -6.59384e-12   1.25167e-08 DIIS
   @DF-RKS iter  13: -1648.29292169225300   -1.81899e-12   4.05738e-09 DIIS

  ==> Post-Iterations <==

    Orbital Energies [Eh]
    ---------------------

    Doubly Occupied:                                                      

       1A   -102.702963     2A   -102.699860     3A   -102.698898  
       4A    -19.659196     5A    -19.646530     6A    -10.736719  
       7A    -10.674756     8A    -10.597457     9A     -9.845377  
      10A     -9.842672    11A     -9.841552    12A     -7.570710  
      13A     -7.568058    14A     -7.567053    15A     -7.563366  
      16A     -7.563154    17A     -7.560692    18A     -7.560435  
      19A     -7.559446    20A     -7.559345    21A     -1.221119  
      22A     -1.168557    23A     -1.059769    24A     -0.946268  
      25A     -0.944894    26A     -0.799710    27A     -0.798089  
      28A     -0.677205    29A     -0.610296    30A     -0.603155  
      31A     -0.572780    32A     -0.569185    33A     -0.539997  
      34A     -0.529837    35A     -0.520839    36A     -0.489250  
      37A     -0.436729    38A     -0.426080    39A     -0.422650  
      40A     -0.419850    41A     -0.392374    42A     -0.390155  
      43A     -0.376272    44A     -0.375816    45A     -0.358917  

    Virtual:                                                              

      46A     -0.023625    47A     -0.009316    48A      0.001061  
      49A      0.008545    50A      0.015957    51A      0.027164  
      52A      0.037362    53A      0.043209    54A      0.049221  
      55A      0.055948    56A      0.059752    57A      0.064988  
      58A      0.074208    59A      0.086036    60A      0.094554  
      61A      0.099499    62A      0.105522    63A      0.113293  
      64A      0.116955    65A      0.121482    66A      0.129805  
      67A      0.133758    68A      0.137564    69A      0.140699  
      70A      0.142848    71A      0.147548    72A      0.152132  
      73A      0.162914    74A      0.173803    75A      0.181205  
      76A      0.190879    77A      0.210848    78A      0.214054  
      79A      0.229583    80A      0.235364    81A      0.247476  
      82A      0.265398    83A      0.265798    84A      0.286054  
      85A      0.301281    86A      0.306445    87A      0.310143  
      88A      0.321716    89A      0.334727    90A      0.337783  
      91A      0.344974    92A      0.366444    93A      0.408501  
      94A      0.417836    95A      0.439855    96A      0.445364  
      97A      0.446523    98A      0.463068    99A      0.479636  
     100A      0.489836   101A      0.493169   102A      0.495991  
     103A      0.509148   104A      0.517099   105A      0.527991  
     106A      0.549494   107A      0.565589   108A      0.572220  
     109A      0.580770   110A      0.597166   111A      0.624049  
     112A      0.644369   113A      0.657010   114A      0.684131  
     115A      0.694921   116A      0.709338   117A      0.753040  
     118A      0.836312   119A      0.884739   120A      0.894291  
     121A      0.912816   122A      0.913945   123A      0.923620  
     124A      0.928370   125A      0.936471   126A      0.950771  
     127A      0.967162   128A      0.971471   129A      0.978781  
     130A      1.014750   131A      1.022185   132A      1.033675  
     133A      1.061563   134A      1.077151   135A      1.085405  
     136A      1.126215   137A      1.153773   138A      1.160108  
     139A      1.203115   140A      1.214920   141A      1.231108  
     142A      1.247188   143A      1.271824   144A      1.289027  
     145A      1.329964   146A      1.334617   147A      1.369311  
     148A      1.396311   149A      1.468335   150A      1.485492  
     151A      1.520476   152A      1.539791   153A      1.571551  
     154A      1.587407   155A      1.610663   156A      1.620083  
     157A      1.671635   158A      1.689462   159A      1.727596  
     160A      1.731726   161A      1.755673   162A      1.806609  
     163A      1.835581   164A      1.841462   165A      1.893833  
     166A      1.983681   167A      2.032353   168A      2.040607  
     169A      2.090497   170A      2.155811   171A      2.233148  
     172A      2.289561   173A      2.294402   174A      2.310946  
     175A      2.345295   176A      2.347769   177A      2.354153  
     178A      2.379993   179A      2.451242   180A      2.472692  
     181A      2.494819   182A      2.509846   183A      2.525250  
     184A      2.543361   185A      2.546039   186A      2.585646  
     187A      2.608854   188A      2.678985   189A      2.751836  
     190A      2.834590   191A      2.907626   192A      2.927339  
     193A      2.936150   194A      3.044429   195A      3.065787  
     196A      3.111365   197A      3.137293   198A      3.169365  
     199A      3.258490   200A      3.328352   201A      3.407031  
     202A      3.528264   203A      3.592499   204A      3.784734  
     205A      3.796758   206A      3.831476   207A      3.962161  
     208A      3.976204   209A      4.083628   210A      5.165665  
     211A      5.225048   212A      5.250957   213A      5.522120  
     214A      5.729886   215A      5.792748   216A      9.926746  
     217A      9.946007   218A      9.979188   219A     23.500756  
     220A     23.933363   221A     23.989339   222A     25.960296  
     223A     25.985265   224A     25.998460   225A     26.010074  
     226A     26.081478   227A     26.119516   228A     26.511034  
     229A     26.541513   230A     26.811752   231A     50.003937  
     232A     50.066804   233A    216.023261   234A    216.046579  
     235A    216.103104  

    Final Occupation by Irrep:
              A 
    DOCC [    45 ]

  Energy converged.

  @DF-RKS Final Energy: -1648.29292169225300

   => Energetics <=

    Nuclear Repulsion Energy =            657.6492490469549921
    One-Electron Energy =               -3580.1640301951329093
    Two-Electron Energy =                1331.2950597640583510
    DFT Exchange-Correlation Energy =     -57.0732003081334227
    Empirical Dispersion Energy =           0.0000000000000000
    VV10 Nonlocal Energy =                  0.0000000000000000
    Total Energy =                      -1648.2929216922530031



Properties will be evaluated at   0.000000,   0.000000,   0.000000 [a0]

Properties computed using the SCF density matrix

  Nuclear Dipole Moment: [e a0]
     X:     4.4463      Y:     9.8770      Z:   -12.2278

  Electronic Dipole Moment: [e a0]
     X:    -3.8072      Y:    -9.2070      Z:    11.5412

  Dipole Moment: [e a0]
     X:     0.6391      Y:     0.6700      Z:    -0.6865     Total:     1.1527

  Dipole Moment: [D]
     X:     1.6244      Y:     1.7030      Z:    -1.7450     Total:     2.9298


*** tstop() called on localhost.localdomain at Mon May 13 12:02:47 2019
Module time:
	user time   =     328.78 seconds =       5.48 minutes
	system time =       6.63 seconds =       0.11 minutes
	total time  =         13 seconds =       0.22 minutes
Total time:
	user time   =     846.41 seconds =      14.11 minutes
	system time =      22.08 seconds =       0.37 minutes
	total time  =         33 seconds =       0.55 minutes

*** tstart() called on localhost.localdomain
*** at Mon May 13 12:02:47 2019


         ------------------------------------------------------------
                                   SCF GRAD                          
                          Rob Parrish, Justin Turney,                
                       Andy Simmonett, and Alex Sokolov              
         ------------------------------------------------------------

  ==> Geometry <==

    Molecular point group: c1
    Full point group: C1

    Geometry (in Angstrom), charge = 0, multiplicity = 1:

       Center              X                  Y                   Z               Mass       
    ------------   -----------------  -----------------  -----------------  -----------------
         C           -0.009875406605    -0.430179046799    -1.197151664081    12.000000000000
         O           -0.984053413207    -0.563314038885    -1.865233693886    15.994914619560
         CL           1.340291615014     0.461650373720     0.992089805988    34.968852682000
         CL          -1.557320648317     0.234343471758     0.957967578401    34.968852682000
         H            1.115192717929     3.414155696943    -2.461741544434     1.007825032070
         C            1.160269105546     2.372020044859    -2.136212076108    12.000000000000
         H            1.154537304764     1.722033532104    -3.018369811638     1.007825032070
         H            2.088817464605     2.217869670938    -1.587124761782     1.007825032070
         O            0.103350869340     2.056928340159    -1.243529460855    15.994914619560
         H           -0.739618392025     2.167610823770    -1.693614623554     1.007825032070
         C           -0.049664553240    -0.429979495830     0.351801994148    12.000000000000
         CL           0.108372820229    -2.160215610371     0.793317274751    34.968852682000
         H            1.022348115620    -0.423280967437    -1.587693688535     1.007825032070

  Nuclear repulsion =  657.649249046954992

  ==> Basis Set <==

  Basis Set: 6-311++G(D,P)
    Blend: 6-311++G(D,P)
    Number of shells: 117
    Number of basis function: 235
    Number of Cartesian functions: 243
    Spherical Harmonics?: true
    Max angular momentum: 2

  ==> DFJKGrad: Density-Fitted SCF Gradients <==

    Gradient:                    1
    J tasked:                  Yes
    K tasked:                  Yes
    wK tasked:                  No
    OpenMP threads:             32
    Integrals threads:          32
    Memory (MB):               375
    Schwarz Cutoff:          0E+00
    Fitting Condition:       1E-12

   => Auxiliary Basis Set <=

  Basis Set: (6-311++G(D,P) AUX)
    Blend: AUG-CC-PVTZ-JKFIT
    Number of shells: 346
    Number of basis function: 1188
    Number of Cartesian functions: 1470
    Spherical Harmonics?: true
    Max angular momentum: 4

  ==> DFT Potential <==

   => Composite Functional: M06-2X <= 

    Hybrid M06-2X Meta-GGA XC Functional

    Y. Zhao and D. G. Truhlar,  Theor. Chem. Acc., 120, 215, 2008


    Deriv               =              1
    GGA                 =           TRUE
    Meta                =           TRUE

    Exchange Hybrid     =           TRUE
    MP2 Hybrid          =          FALSE

   => Exchange Functionals <=

    1.0000   XC_HYB_MGGA_X_M06_2X

   => Exact (HF) Exchange <=

    0.5400               HF 

   => Correlation Functionals <=

    1.0000   XC_MGGA_C_M06_2X

   => Molecular Quadrature <=

    Radial Scheme       =       TREUTLER
    Pruning Scheme      =           FLAT
    Nuclear Scheme      =       TREUTLER

    BS radius alpha     =              1
    Pruning alpha       =              1
    Radial Points       =             75
    Spherical Points    =            302
    Total Points        =         294163
    Total Blocks        =           2253
    Max Points          =            256
    Max Functions       =            208


  -Total Gradient:
     Atom            X                  Y                   Z
    ------   -----------------  -----------------  -----------------
       1        0.001131249388     0.004867006889    -0.000068127544
       2       -0.001017500533    -0.000665456904     0.000080796345
       3       -0.001159245958     0.000899262280    -0.000332640975
       4        0.000852109431     0.000435151077     0.000265598378
       5       -0.000085944272    -0.000152528320    -0.000122061353
       6        0.000500990679    -0.000647982401     0.000050987244
       7        0.000077598782     0.000115411058    -0.000221363909
       8       -0.000024047029     0.000033127675    -0.000044089079
       9        0.000152864798    -0.002076283225     0.001028224539
      10       -0.000192779339    -0.000459531880    -0.000131686729
      11       -0.000920942786    -0.000083474821    -0.000615204204
      12        0.000472079455    -0.001475970301     0.000051363414
      13        0.000126443374    -0.000603292859     0.000045689155


*** tstop() called on localhost.localdomain at Mon May 13 12:02:52 2019
Module time:
	user time   =     119.81 seconds =       2.00 minutes
	system time =       5.30 seconds =       0.09 minutes
	total time  =          5 seconds =       0.08 minutes
Total time:
	user time   =     966.27 seconds =      16.10 minutes
	system time =      27.39 seconds =       0.46 minutes
	total time  =         38 seconds =       0.63 minutes

			-----------------------------------------
			 OPTKING 2.0: for geometry optimizations 
			  - R.A. King,  Bethel University        
			-----------------------------------------

	Previous internal coordinate definitions found.
	---Fragment 1 Geometry and Gradient---
	 C          -0.0186618139       -0.8129205866       -2.2622887846
	 O          -1.8595914511       -1.0645092603       -3.5247808553
	 CL          2.5327840906        0.8723927755        1.8747780325
	 CL         -2.9429095264        0.4428449827        1.8102963674
	 H           2.1074088223        6.4518192423       -4.6520173289
	 C           2.1925908499        4.4824682665       -4.0368557856
	 H           2.1817593162        3.2541717673       -5.7038923118
	 H           3.9472929497        4.1911662765       -2.9992311385
	 O           0.1953048386        3.8870312379       -2.3499301192
	 H          -1.3976762038        4.0961908196       -3.2004678132
	 C          -0.0938524041       -0.8125434899        0.6648094219
	 CL          0.2047949505       -4.0822158916        1.4991523858
	 H           1.9319579510       -0.7998851057       -3.0003062542
	             0.0011312494        0.0048670069       -0.0000681275
	            -0.0010175005       -0.0006654569        0.0000807963
	            -0.0011592460        0.0008992623       -0.0003326410
	             0.0008521094        0.0004351511        0.0002655984
	            -0.0000859443       -0.0001525283       -0.0001220614
	             0.0005009907       -0.0006479824        0.0000509872
	             0.0000775988        0.0001154111       -0.0002213639
	            -0.0000240470        0.0000331277       -0.0000440891
	             0.0001528648       -0.0020762832        0.0010282245
	            -0.0001927793       -0.0004595319       -0.0001316867
	            -0.0009209428       -0.0000834748       -0.0006152042
	             0.0004720795       -0.0014759703        0.0000513634
	             0.0001264434       -0.0006032929        0.0000456892

	---Fragment 1 Intrafragment Coordinates---
	 - Coordinate -           - BOHR/RAD -       - ANG/DEG -
	 R(1,2)           =         2.246376	       1.188731
	 R(1,9)           =         4.705636	       2.490115
	 R(1,11)          =         2.928064	       1.549465
	 R(1,13)          =         2.085607	       1.103656
	 R(3,11)          =         3.346977	       1.771144
	 R(4,11)          =         3.317419	       1.755502
	 R(5,6)           =         2.064951	       1.092725
	 R(6,7)           =         2.070710	       1.095773
	 R(6,8)           =         2.059248	       1.089707
	 R(6,9)           =         2.681308	       1.418887
	 R(9,10)          =         1.817897	       0.961990
	 R(11,12)         =         3.387636	       1.792660
	 B(1,9,6)         =         1.841479	     105.508982
	 B(1,9,10)        =         1.654681	      94.806229
	 B(1,11,3)        =         1.919100	     109.956338
	 B(1,11,4)        =         1.946883	     111.548171
	 B(1,11,12)       =         1.817100	     104.112186
	 B(2,1,9)         =         1.709903	      97.970218
	 B(2,1,11)        =         2.142181	     122.737940
	 B(2,1,13)        =         2.175228	     124.631375
	 B(3,11,4)        =         1.937615	     111.017187
	 B(3,11,12)       =         1.904632	     109.127359
	 B(4,11,12)       =         1.934689	     110.849518
	 B(5,6,7)         =         1.902514	     109.006033
	 B(5,6,8)         =         1.896708	     108.673351
	 B(5,6,9)         =         1.948176	     111.622285
	 B(6,9,10)        =         1.910094	     109.440334
	 B(7,6,8)         =         1.903079	     109.038406
	 B(7,6,9)         =         1.950744	     111.769402
	 B(8,6,9)         =         1.861158	     106.636518
	 B(9,1,11)        =         1.590455	      91.126372
	 B(9,1,13)        =         1.515407	      86.826451
	 B(11,1,13)       =         1.958174	     112.195119
	 D(1,9,6,5)       =         2.848932	     163.231766
	 D(1,9,6,7)       =         0.713018	      40.852940
	 D(1,9,6,8)       =        -1.365201	     -78.220261
	 D(2,1,9,6)       =        -1.830069	    -104.855257
	 D(2,1,9,10)      =         0.119685	       6.857435
	 D(2,1,11,3)      =        -2.709914	    -155.266631
	 D(2,1,11,4)      =        -0.552418	     -31.651224
	 D(2,1,11,12)     =         1.534883	      87.942320
	 D(3,11,1,9)      =        -0.960656	     -55.041531
	 D(3,11,1,13)     =         0.558336	      31.990324
	 D(4,11,1,9)      =         1.196840	      68.573876
	 D(4,11,1,13)     =         2.715832	     155.605731
	 D(5,6,9,10)      =         1.086821	      62.270247
	 D(6,9,1,11)      =         2.301235	     131.851058
	 D(6,9,1,13)      =         0.343533	      19.682967
	 D(7,6,9,10)      =        -1.049093	     -60.108579
	 D(8,6,9,10)      =        -3.127312	    -179.181781
	 D(9,1,11,12)     =        -2.999044	    -171.832579
	 D(10,9,1,11)     =        -2.032196	    -116.436250
	 D(10,9,1,13)     =         2.293287	     131.395658
	 D(12,11,1,13)    =        -1.480052	     -84.800724
	 R(3,6)           =         6.935113	       3.669904

	Current energy   :     -1648.2929216923

	Energy change for the previous step:
		Projected    :        -0.0015759357
		Actual       :        -0.0011307568

	Performing BFGS update.
	Previous computed or guess Hessian on step 1.
	Steps to be used in Hessian update: 1
	Taking RFO optimization step.
	Going to follow RFO solution 1.
	Using RFO vector 1.
	Norm of target step-size    0.32725
	Projected energy change by RFO approximation:        -0.0005697491

	Back-transformation to cartesian coordinates...
	Successfully converged to displaced geometry.

	--- Internal Coordinate Step in ANG or DEG, aJ/ANG or AJ/DEG ---
	 ---------------------------------------------------------------------------
	   Coordinate                Previous        Force       Change         New 
	   ----------                --------       ------       ------       ------
	    1 R(1,2)          =      1.188731    -0.007026    -0.000449     1.188282
	    2 R(1,9)          =      2.490115     0.024730     0.076517     2.566632
	    3 R(1,11)         =      1.549465     0.002444     0.000277     1.549742
	    4 R(1,13)         =      1.103656    -0.000973    -0.000241     1.103415
	    5 R(3,11)         =      1.771144     0.004536    -0.000119     1.771025
	    6 R(4,11)         =      1.755502     0.004069     0.000462     1.755964
	    7 R(5,6)          =      1.092725     0.000923     0.000290     1.093015
	    8 R(6,7)          =      1.095773    -0.000836    -0.000228     1.095545
	    9 R(6,8)          =      1.089707     0.000338     0.000077     1.089784
	   10 R(6,9)          =      1.418887    -0.005184    -0.000523     1.418364
	   11 R(9,10)         =      0.961990    -0.001457    -0.000621     0.961369
	   12 R(11,12)        =      1.792660    -0.012362    -0.001450     1.791210
	   13 B(1,9,6)        =    105.508982     0.000075     0.756468   106.265450
	   14 B(1,9,10)       =     94.806229     0.000012     0.523373    95.329602
	   15 B(1,11,3)       =    109.956338    -0.000020    -1.086328   108.870010
	   16 B(1,11,4)       =    111.548171    -0.000070    -0.458811   111.089360
	   17 B(1,11,12)      =    104.112186     0.000054     1.037930   105.150115
	   18 B(2,1,9)        =     97.970218    -0.000034    -0.398937    97.571280
	   19 B(2,1,11)       =    122.737940     0.000051     0.263269   123.001209
	   20 B(2,1,13)       =    124.631375    -0.000024    -0.047880   124.583494
	   21 B(3,11,4)       =    111.017187     0.000106     1.014560   112.031748
	   22 B(3,11,12)      =    109.127359    -0.000039    -0.038453   109.088905
	   23 B(4,11,12)      =    110.849518    -0.000037    -0.488731   110.360787
	   24 B(5,6,7)        =    109.006033     0.000016     0.100193   109.106226
	   25 B(5,6,8)        =    108.673351    -0.000003    -0.037489   108.635862
	   26 B(5,6,9)        =    111.622285     0.000007     0.064007   111.686293
	   27 B(6,9,10)       =    109.440334    -0.000012     0.075870   109.516203
	   28 B(7,6,8)        =    109.038406     0.000004    -0.033552   109.004855
	   29 B(7,6,9)        =    111.769402    -0.000021    -0.098522   111.670880
	   30 B(8,6,9)        =    106.636518    -0.000002     0.000798   106.637317
	   31 B(9,1,11)       =     91.126372    -0.000049    -1.087897    90.038475
	   32 B(9,1,13)       =     86.826451     0.000027    -0.236434    86.590017
	   33 B(11,1,13)      =    112.195119    -0.000020    -0.019799   112.175320
	   34 D(1,9,6,5)      =    163.231766     0.000006     1.292272   164.524038
	   35 D(1,9,6,7)      =     40.852940     0.000004     1.187249    42.040189
	   36 D(1,9,6,8)      =    -78.220261     0.000006     1.282953   -76.937308
	   37 D(2,1,9,6)      =   -104.855257     0.000003    -2.029762  -106.885019
	   38 D(2,1,9,10)     =      6.857435     0.000005    -1.611064     5.246371
	   39 D(2,1,11,3)     =   -155.266631    -0.000003    -4.160130  -159.426761
	   40 D(2,1,11,4)     =    -31.651224     0.000014    -3.947752   -35.598976
	   41 D(2,1,11,12)    =     87.942320     0.000003    -4.151106    83.791214
	   42 D(3,11,1,9)     =    -55.041531    -0.000018    -5.320889   -60.362420
	   43 D(3,11,1,13)    =     31.990324    -0.000017    -6.019747    25.970577
	   44 D(4,11,1,9)     =     68.573876    -0.000002    -5.108510    63.465366
	   45 D(4,11,1,13)    =    155.605731     0.000000    -5.807369   149.798363
	   46 D(5,6,9,10)     =     62.270247    -0.000003     0.361747    62.631994
	   47 D(6,9,1,11)     =    131.851058    -0.000006    -2.071287   129.779771
	   48 D(6,9,1,13)     =     19.682967    -0.000002    -2.117472    17.565495
	   49 D(7,6,9,10)     =    -60.108579    -0.000006     0.256724   -59.851855
	   50 D(8,6,9,10)     =   -179.181781    -0.000004     0.352428  -178.829353
	   51 D(9,1,11,12)    =   -171.832579    -0.000013    -5.311865  -177.144445
	   52 D(10,9,1,11)    =   -116.436250    -0.000004    -1.652589  -118.088840
	   53 D(10,9,1,13)    =    131.395658    -0.000000    -1.698774   129.696885
	   54 D(12,11,1,13)   =    -84.800724    -0.000011    -6.010723   -90.811448
	   55 R(3,6)          =      3.669904     0.003305     0.031322     3.701225
	 ---------------------------------------------------------------------------
	Successfully symmetrized geometry.

  ==> Convergence Check <==

  Measures of convergence in internal coordinates in au.
  Criteria marked as inactive (o), active & met (*), and active & unmet ( ).
  ---------------------------------------------------------------------------------------------
   Step     Total Energy     Delta E     MAX Force     RMS Force      MAX Disp      RMS Disp   
  ---------------------------------------------------------------------------------------------
    Convergence Criteria    1.00e-06 *    3.00e-04 *             o    1.20e-03 *             o
  ---------------------------------------------------------------------------------------------
      2   -1648.29292169   -1.13e-03      3.00e-03      6.60e-04 o    1.45e-01      4.41e-02 o  ~
  ---------------------------------------------------------------------------------------------

	Writing optimization data to binary file.
	Structure for next step:
	Cartesian Geometry (in Angstrom)
	    C    -0.0541392409  -0.4808183880  -1.1510848598
	    O    -1.0483785904  -0.6078236308  -1.7893417024
	   CL     1.4603626316   0.3658939975   0.9232681839
	   CL    -1.4618063191   0.4666976190   0.9853058120
	    H     1.1669843857   3.3922039661  -2.5265063062
	    C     1.1839305637   2.3534761369  -2.1867434944
	    H     1.1655656134   1.6905974073  -3.0587943350
	    H     2.1060592724   2.1837551806  -1.6313133357
	    O     0.1160657044   2.0760940814  -1.2954071119
	    H    -0.7219497424   2.1957945099  -1.7510731800
	    C    -0.0496383368  -0.3948242157   0.3962624287
	   CL    -0.0768511074  -2.0948988808   0.9596786306
	    H     0.9664427656  -0.5065049885  -1.5697454013
			--------------------------
			 OPTKING Finished Execution 
			--------------------------

    Structure for next step:
    Molecular point group: c1
    Full point group: C1

    Geometry (in Angstrom), charge = 0, multiplicity = 1:

    C           -0.054315930706    -0.515119309169    -1.179412708233
    O           -1.048555280252    -0.642124552022    -1.817669550889
    CL           1.460185941752     0.331593076297     0.894940335478
    CL          -1.461983008895     0.432396697834     0.956977963561
    H            1.166807695866     3.357903044901    -2.554834154605
    C            1.183753873879     2.319175215719    -2.215071342893
    H            1.165388923598     1.656296486142    -3.087122183438
    H            2.105882582609     2.149454259389    -1.659641184137
    O            0.115889014607     2.041793160240    -1.323734960377
    H           -0.722126432230     2.161493588693    -1.779401028455
    C           -0.049815026601    -0.429125136853     0.367934580208
    CL          -0.077027797219    -2.129199801974     0.931350782134
    H            0.966266075762    -0.540805909666    -1.598073249756

gradient() will perform analytic gradient computation.

*** tstart() called on localhost.localdomain
*** at Mon May 13 12:02:52 2019

   => Loading Basis Set <=

    Name: 6-311++G(D,P)
    Role: ORBITAL
    Keyword: BASIS
    atoms 1, 6, 11       entry C          line   119 file /root/psi4conda/share/psi4/basis/6-311ppg_d_p_.gbs 
    atoms 2, 9           entry O          line   161 file /root/psi4conda/share/psi4/basis/6-311ppg_d_p_.gbs 
    atoms 3-4, 12        entry CL         line   458 file /root/psi4conda/share/psi4/basis/6-311ppg_d_p_.gbs 
    atoms 5, 7-8, 10, 13 entry H          line    42 file /root/psi4conda/share/psi4/basis/6-311ppg_d_p_.gbs 


         ---------------------------------------------------------
                                   SCF
            by Justin Turney, Rob Parrish, Andy Simmonett
                             and Daniel Smith
                              RKS Reference
                       32 Threads,    500 MiB Core
         ---------------------------------------------------------

  ==> Geometry <==

    Molecular point group: c1
    Full point group: C1

    Geometry (in Angstrom), charge = 0, multiplicity = 1:

       Center              X                  Y                   Z               Mass       
    ------------   -----------------  -----------------  -----------------  -----------------
         C           -0.054315930706    -0.515119309169    -1.179412708233    12.000000000000
         O           -1.048555280252    -0.642124552022    -1.817669550889    15.994914619560
         CL           1.460185941752     0.331593076297     0.894940335478    34.968852682000
         CL          -1.461983008895     0.432396697834     0.956977963561    34.968852682000
         H            1.166807695866     3.357903044901    -2.554834154605     1.007825032070
         C            1.183753873879     2.319175215719    -2.215071342893    12.000000000000
         H            1.165388923598     1.656296486142    -3.087122183438     1.007825032070
         H            2.105882582609     2.149454259389    -1.659641184137     1.007825032070
         O            0.115889014607     2.041793160240    -1.323734960377    15.994914619560
         H           -0.722126432230     2.161493588693    -1.779401028455     1.007825032070
         C           -0.049815026601    -0.429125136853     0.367934580208    12.000000000000
         CL          -0.077027797219    -2.129199801974     0.931350782134    34.968852682000
         H            0.966266075762    -0.540805909666    -1.598073249756     1.007825032070

  Running in c1 symmetry.

  Rotational constants: A =      0.05007  B =      0.02767  C =      0.02562 [cm^-1]
  Rotational constants: A =   1501.19021  B =    829.39663  C =    768.17896 [MHz]
  Nuclear repulsion =  655.961752910553628

  Charge       = 0
  Multiplicity = 1
  Electrons    = 90
  Nalpha       = 45
  Nbeta        = 45

  ==> Algorithm <==

  SCF Algorithm Type is DF.
  DIIS enabled.
  MOM disabled.
  Fractional occupation disabled.
  Guess Type is READ.
  Energy threshold   = 1.00e-08
  Density threshold  = 1.00e-08
  Integral threshold = 0.00e+00

  ==> Primary Basis <==

  Basis Set: 6-311++G(D,P)
    Blend: 6-311++G(D,P)
    Number of shells: 117
    Number of basis function: 235
    Number of Cartesian functions: 243
    Spherical Harmonics?: true
    Max angular momentum: 2

  ==> DFT Potential <==

   => Composite Functional: M06-2X <= 

    Hybrid M06-2X Meta-GGA XC Functional

    Y. Zhao and D. G. Truhlar,  Theor. Chem. Acc., 120, 215, 2008


    Deriv               =              1
    GGA                 =           TRUE
    Meta                =           TRUE

    Exchange Hybrid     =           TRUE
    MP2 Hybrid          =          FALSE

   => Exchange Functionals <=

    1.0000   XC_HYB_MGGA_X_M06_2X

   => Exact (HF) Exchange <=

    0.5400               HF 

   => Correlation Functionals <=

    1.0000   XC_MGGA_C_M06_2X

   => Molecular Quadrature <=

    Radial Scheme       =       TREUTLER
    Pruning Scheme      =           FLAT
    Nuclear Scheme      =       TREUTLER

    BS radius alpha     =              1
    Pruning alpha       =              1
    Radial Points       =             75
    Spherical Points    =            302
    Total Points        =         294163
    Total Blocks        =           2272
    Max Points          =            256
    Max Functions       =            208

   => Loading Basis Set <=

    Name: (6-311++G(D,P) AUX)
    Role: JKFIT
    Keyword: DF_BASIS_SCF
    atoms 1, 6, 11       entry C          line   162 file /root/psi4conda/share/psi4/basis/aug-cc-pvtz-jkfit.gbs 
    atoms 2, 9           entry O          line   286 file /root/psi4conda/share/psi4/basis/aug-cc-pvtz-jkfit.gbs 
    atoms 3-4, 12        entry CL         line   816 file /root/psi4conda/share/psi4/basis/aug-cc-pvtz-jkfit.gbs 
    atoms 5, 7-8, 10, 13 entry H          line    70 file /root/psi4conda/share/psi4/basis/aug-cc-pvtz-jkfit.gbs 

  Reading orbitals from file 180, no projection.

  ==> Pre-Iterations <==

   -------------------------------------------------------
    Irrep   Nso     Nmo     Nalpha   Nbeta   Ndocc  Nsocc
   -------------------------------------------------------
     A        235     235       0       0       0       0
   -------------------------------------------------------
    Total     235     235      45      45      45       0
   -------------------------------------------------------

  ==> Integral Setup <==

  ==> DiskDFJK: Density-Fitted J/K Matrices <==

    J tasked:                  Yes
    K tasked:                  Yes
    wK tasked:                  No
    OpenMP threads:             32
    Integrals threads:          32
    Memory (MB):               375
    Algorithm:                Core
    Integral Cache:           NONE
    Schwarz Cutoff:          1E-12
    Fitting Condition:       1E-12

   => Auxiliary Basis Set <=

  Basis Set: (6-311++G(D,P) AUX)
    Blend: AUG-CC-PVTZ-JKFIT
    Number of shells: 346
    Number of basis function: 1188
    Number of Cartesian functions: 1470
    Spherical Harmonics?: true
    Max angular momentum: 4

  Minimum eigenvalue in the overlap matrix is 2.3927486220E-05.
  Using Symmetric Orthogonalization.

  SCF Guess: Orbitals guess was supplied from a previous computation.

  ==> Iterations <==

                           Total Energy        Delta E     RMS |[F,P]|

   @DF-RKS iter   0: -1648.25737756533499   -1.64826e+03   9.41303e-03 
   @DF-RKS iter   1: -1648.29118487693108   -3.38073e-02   9.68746e-04 
   @DF-RKS iter   2: -1648.29151481388362   -3.29937e-04   1.44541e-03 DIIS
   @DF-RKS iter   3: -1648.29311051227273   -1.59570e-03   2.59461e-04 DIIS
   @DF-RKS iter   4: -1648.29318916675675   -7.86545e-05   1.03787e-04 DIIS
   @DF-RKS iter   5: -1648.29320609957836   -1.69328e-05   3.22157e-05 DIIS
   @DF-RKS iter   6: -1648.29320827758397   -2.17801e-06   1.51247e-05 DIIS
   @DF-RKS iter   7: -1648.29320872068070   -4.43097e-07   4.92550e-06 DIIS
   @DF-RKS iter   8: -1648.29320880326986   -8.25892e-08   2.04592e-06 DIIS
   @DF-RKS iter   9: -1648.29320881462877   -1.13589e-08   9.24882e-07 DIIS
   @DF-RKS iter  10: -1648.29320881676404   -2.13527e-09   3.97265e-07 DIIS
   @DF-RKS iter  11: -1648.29320881728245   -5.18412e-10   7.53298e-08 DIIS
   @DF-RKS iter  12: -1648.29320881731201   -2.95586e-11   2.17958e-08 DIIS
   @DF-RKS iter  13: -1648.29320881731383   -1.81899e-12   6.67656e-09 DIIS

  ==> Post-Iterations <==

    Orbital Energies [Eh]
    ---------------------

    Doubly Occupied:                                                      

       1A   -102.702775     2A   -102.701527     3A   -102.698479  
       4A    -19.661384     5A    -19.644335     6A    -10.737107  
       7A    -10.674631     8A    -10.595825     9A     -9.845217  
      10A     -9.844322    11A     -9.841176    12A     -7.570566  
      13A     -7.569681    14A     -7.566688    15A     -7.563191  
      16A     -7.562986    17A     -7.562334    18A     -7.562137  
      19A     -7.559021    20A     -7.558984    21A     -1.222284  
      22A     -1.166327    23A     -1.060212    24A     -0.947142  
      25A     -0.944966    26A     -0.799668    27A     -0.796518  
      28A     -0.677363    29A     -0.608242    30A     -0.603512  
      31A     -0.573797    32A     -0.567974    33A     -0.539067  
      34A     -0.530424    35A     -0.519493    36A     -0.490668  
      37A     -0.434423    38A     -0.426912    39A     -0.423276  
      40A     -0.419141    41A     -0.393525    42A     -0.389841  
      43A     -0.376497    44A     -0.374761    45A     -0.359732  

    Virtual:                                                              

      46A     -0.027327    47A     -0.009552    48A      0.000755  
      49A      0.008912    50A      0.015742    51A      0.027119  
      52A      0.036503    53A      0.043895    54A      0.049206  
      55A      0.054452    56A      0.059351    57A      0.065002  
      58A      0.076510    59A      0.087187    60A      0.093205  
      61A      0.099048    62A      0.105707    63A      0.113630  
      64A      0.118139    65A      0.122056    66A      0.129709  
      67A      0.134250    68A      0.137828    69A      0.140922  
      70A      0.142160    71A      0.147680    72A      0.152135  
      73A      0.165290    74A      0.174859    75A      0.180192  
      76A      0.189512    77A      0.212442    78A      0.213436  
      79A      0.229707    80A      0.235726    81A      0.247313  
      82A      0.261655    83A      0.267060    84A      0.286633  
      85A      0.298833    86A      0.306192    87A      0.311138  
      88A      0.316791    89A      0.333989    90A      0.338948  
      91A      0.342883    92A      0.366285    93A      0.402049  
      94A      0.413858    95A      0.441806    96A      0.444286  
      97A      0.447258    98A      0.465062    99A      0.478405  
     100A      0.488646   101A      0.494069   102A      0.495960  
     103A      0.506250   104A      0.516864   105A      0.526801  
     106A      0.547350   107A      0.568733   108A      0.576217  
     109A      0.584329   110A      0.592671   111A      0.625939  
     112A      0.643094   113A      0.651489   114A      0.683575  
     115A      0.694890   116A      0.709557   117A      0.754731  
     118A      0.830899   119A      0.879437   120A      0.893492  
     121A      0.912095   122A      0.916315   123A      0.923334  
     124A      0.929788   125A      0.934772   126A      0.948516  
     127A      0.970457   128A      0.972529   129A      0.980046  
     130A      1.018406   131A      1.024843   132A      1.039179  
     133A      1.061582   134A      1.069293   135A      1.081765  
     136A      1.123771   137A      1.154862   138A      1.157100  
     139A      1.196937   140A      1.211205   141A      1.223618  
     142A      1.247413   143A      1.264154   144A      1.291597  
     145A      1.318643   146A      1.333228   147A      1.378227  
[...]
         H            1.083509554251    -0.705773458548    -1.499637713570     1.007825032070

  Nuclear repulsion =  653.950577403062880

  ==> Basis Set <==

  Basis Set: 6-311++G(D,P)
    Blend: 6-311++G(D,P)
    Number of shells: 117
    Number of basis function: 235
    Number of Cartesian functions: 243
    Spherical Harmonics?: true
    Max angular momentum: 2

  ==> DFJKGrad: Density-Fitted SCF Gradients <==

    Gradient:                    1
    J tasked:                  Yes
    K tasked:                  Yes
    wK tasked:                  No
    OpenMP threads:             32
    Integrals threads:          32
    Memory (MB):               375
    Schwarz Cutoff:          0E+00
    Fitting Condition:       1E-12

   => Auxiliary Basis Set <=

  Basis Set: (6-311++G(D,P) AUX)
    Blend: AUG-CC-PVTZ-JKFIT
    Number of shells: 346
    Number of basis function: 1188
    Number of Cartesian functions: 1470
    Spherical Harmonics?: true
    Max angular momentum: 4

  ==> DFT Potential <==

   => Composite Functional: M06-2X <= 

    Hybrid M06-2X Meta-GGA XC Functional

    Y. Zhao and D. G. Truhlar,  Theor. Chem. Acc., 120, 215, 2008


    Deriv               =              1
    GGA                 =           TRUE
    Meta                =           TRUE

    Exchange Hybrid     =           TRUE
    MP2 Hybrid          =          FALSE

   => Exchange Functionals <=

    1.0000   XC_HYB_MGGA_X_M06_2X

   => Exact (HF) Exchange <=

    0.5400               HF 

   => Correlation Functionals <=

    1.0000   XC_MGGA_C_M06_2X

   => Molecular Quadrature <=

    Radial Scheme       =       TREUTLER
    Pruning Scheme      =           FLAT
    Nuclear Scheme      =       TREUTLER

    BS radius alpha     =              1
    Pruning alpha       =              1
    Radial Points       =             75
    Spherical Points    =            302
    Total Points        =         294165
    Total Blocks        =           2277
    Max Points          =            256
    Max Functions       =            207


  -Total Gradient:
     Atom            X                  Y                   Z
    ------   -----------------  -----------------  -----------------
       1        0.000049613048    -0.000034634284     0.000084977070
       2       -0.000048279582     0.000011518761    -0.000076358694
       3       -0.000043939532    -0.000036748193     0.000005732066
       4       -0.000027164506    -0.000061532219    -0.000024634359
       5       -0.000020949213     0.000012109278     0.000022335099
       6       -0.000024599881    -0.000011882809     0.000041075215
       7       -0.000007823799    -0.000008958945    -0.000017991489
       8        0.000015985624     0.000000081768     0.000044039043
       9       -0.000047602743    -0.000024467348     0.000000627483
      10       -0.000046389921     0.000022431448     0.000000590811
      11       -0.000032467803     0.000014709769    -0.000030655377
      12       -0.000025974335    -0.000079455061    -0.000014560528
      13        0.000006225087    -0.000010126297    -0.000013357334


*** tstop() called on localhost.localdomain at Mon May 13 12:07:16 2019
Module time:
	user time   =     121.67 seconds =       2.03 minutes
	system time =       4.63 seconds =       0.08 minutes
	total time  =          6 seconds =       0.10 minutes
Total time:
	user time   =    7861.66 seconds =     131.03 minutes
	system time =     207.07 seconds =       3.45 minutes
	total time  =        302 seconds =       5.03 minutes

			-----------------------------------------
			 OPTKING 2.0: for geometry optimizations 
			  - R.A. King,  Bethel University        
			-----------------------------------------

	Previous internal coordinate definitions found.
	---Fragment 1 Geometry and Gradient---
	 C           0.0751121151       -1.0584648474       -2.2141528068
	 O          -1.7021454500       -1.0905555222       -3.5833265748
	 CL          2.6533176762        0.4804654133        1.9476605286
	 CL         -2.8276555824        0.9312481314        1.5764003485
	 H           2.4353651971        6.4303453624       -4.7928602912
	 C           2.4704333883        4.4318250004       -4.2703202609
	 H           2.1870522755        3.2792337910       -5.9658847006
	 H           4.3171916848        3.9982741736       -3.4683413765
	 O           0.6590572272        3.8721507657       -2.3773223332
	 H          -1.0057061587        4.2307329252       -3.0106565603
	 C          -0.1556237347       -0.8390624329        0.6986887202
	 CL         -0.4563518898       -4.0322671335        1.7663097566
	 H           2.0475363199       -1.3337185485       -2.8339045772
	             0.0000496130       -0.0000346343        0.0000849771
	            -0.0000482796        0.0000115188       -0.0000763587
	            -0.0000439395       -0.0000367482        0.0000057321
	            -0.0000271645       -0.0000615322       -0.0000246344
	            -0.0000209492        0.0000121093        0.0000223351
	            -0.0000245999       -0.0000118828        0.0000410752
	            -0.0000078238       -0.0000089589       -0.0000179915
	             0.0000159856        0.0000000818        0.0000440390
	            -0.0000476027       -0.0000244673        0.0000006275
	            -0.0000463899        0.0000224314        0.0000005908
	            -0.0000324678        0.0000147098       -0.0000306554
	            -0.0000259743       -0.0000794551       -0.0000145605
	             0.0000062251       -0.0000101263       -0.0000133573

	---Fragment 1 Intrafragment Coordinates---
	 - Coordinate -           - BOHR/RAD -       - ANG/DEG -
	 R(1,2)           =         2.243727	       1.187329
	 R(1,9)           =         4.967755	       2.628823
	 R(1,11)          =         2.930191	       1.550591
	 R(1,13)          =         2.085741	       1.103726
	 R(3,11)          =         3.345331	       1.770273
	 R(4,11)          =         3.323271	       1.758599
	 R(5,6)           =         2.066001	       1.093281
	 R(6,7)           =         2.069713	       1.095245
	 R(6,8)           =         2.059527	       1.089855
	 R(6,9)           =         2.679134	       1.417737
	 R(9,10)          =         1.816901	       0.961463
	 R(11,12)         =         3.380356	       1.788807
	 B(1,9,6)         =         1.886012	     108.060522
	 B(1,9,10)        =         1.670591	      95.717793
	 B(1,11,3)        =         1.911927	     109.545352
	 B(1,11,4)        =         1.945232	     111.453562
	 B(1,11,12)       =         1.823720	     104.491433
	 B(2,1,9)         =         1.658169	      95.006075
	 B(2,1,11)        =         2.147552	     123.045665
	 B(2,1,13)        =         2.172271	     124.461955
	 B(3,11,4)        =         1.945927	     111.493432
	 B(3,11,12)       =         1.906449	     109.231460
	 B(4,11,12)       =         1.926515	     110.381188
	 B(5,6,7)         =         1.906220	     109.218386
	 B(5,6,8)         =         1.893722	     108.502297
	 B(5,6,9)         =         1.949063	     111.673070
	 B(6,9,10)        =         1.909184	     109.388207
	 B(7,6,8)         =         1.901332	     108.938314
	 B(7,6,9)         =         1.949738	     111.711732
	 B(8,6,9)         =         1.862039	     106.686979
	 B(9,1,11)        =         1.538381	      88.142759
	 B(9,1,13)        =         1.580859	      90.576527
	 B(11,1,13)       =         1.960296	     112.316693
	 D(1,9,6,5)       =         2.873355	     164.631097
	 D(1,9,6,7)       =         0.732717	      41.981608
	 D(1,9,6,8)       =        -1.343360	     -76.968868
	 D(2,1,9,6)       =        -1.655696	     -94.864407
	 D(2,1,9,10)      =         0.308756	      17.690392
	 D(2,1,11,3)      =        -2.705873	    -155.035099
	 D(2,1,11,4)      =        -0.544004	     -31.169162
	 D(2,1,11,12)     =         1.536650	      88.043581
	 D(3,11,1,9)      =        -1.051920	     -60.270552
	 D(3,11,1,13)     =         0.516449	      29.590361
	 D(4,11,1,9)      =         1.109949	      63.595386
	 D(4,11,1,13)     =         2.678318	     153.456299
	 D(5,6,9,10)      =         1.074743	      61.578228
	 D(6,9,1,11)      =         2.480491	     142.121681
	 D(6,9,1,13)      =         0.520311	      29.811645
	 D(7,6,9,10)      =        -1.065895	     -61.071261
	 D(8,6,9,10)      =         3.141213	     179.978263
	 D(9,1,11,12)     =        -3.092582	    -177.191872
	 D(10,9,1,11)     =        -1.838242	    -105.323520
	 D(10,9,1,13)     =         2.484763	     142.366443
	 D(12,11,1,13)    =        -1.524213	     -87.330959
	 R(3,6)           =         7.369530	       3.899787

	Current energy   :     -1648.2934620326

	Energy change for the previous step:
		Projected    :        -0.0000010210
		Actual       :        -0.0000001391
	Energy ratio indicates iffy step: Trust radius decreased to 1.172e-02.


	Performing BFGS update.
	Previous computed or guess Hessian on step 1.
	Steps to be used in Hessian update: 17 16
	Taking RFO optimization step.
	Going to follow RFO solution 1.
	Using RFO vector 1.
	Norm of target step-size    0.00850
	Projected energy change by RFO approximation:        -0.0000003415

	Back-transformation to cartesian coordinates...
	Successfully converged to displaced geometry.
	First geometry is closer to target in internal coordinates, so am using that one.
	First geometry has RMS(Delta(q)) = 1.42e-06

	--- Internal Coordinate Step in ANG or DEG, aJ/ANG or AJ/DEG ---
	 ---------------------------------------------------------------------------
	   Coordinate                Previous        Force       Change         New 
	   ----------                --------       ------       ------       ------
	    1 R(1,2)          =      1.187329    -0.000564    -0.000043     1.187286
	    2 R(1,9)          =      2.628823    -0.000039    -0.001392     2.627430
	    3 R(1,11)         =      1.550591     0.000190     0.000102     1.550692
	    4 R(1,13)         =      1.103726    -0.000118    -0.000029     1.103697
	    5 R(3,11)         =      1.770273     0.000091     0.000045     1.770318
	    6 R(4,11)         =      1.758599     0.000162     0.000092     1.758691
	    7 R(5,6)          =      1.093281    -0.000108    -0.000031     1.093250
	    8 R(6,7)          =      1.095245    -0.000306    -0.000058     1.095186
	    9 R(6,8)          =      1.089855    -0.000304    -0.000070     1.089784
	   10 R(6,9)          =      1.417737    -0.000089    -0.000021     1.417715
	   11 R(9,10)         =      0.961463    -0.000247    -0.000020     0.961443
	   12 R(11,12)        =      1.788807    -0.000377    -0.000203     1.788604
	   13 B(1,9,6)        =    108.060522     0.000005     0.027550   108.088072
	   14 B(1,9,10)       =     95.717793    -0.000003    -0.168538    95.549255
	   15 B(1,11,3)       =    109.545352     0.000002    -0.000074   109.545278
	   16 B(1,11,4)       =    111.453562    -0.000001    -0.007688   111.445873
	   17 B(1,11,12)      =    104.491433    -0.000000     0.009554   104.500987
	   18 B(2,1,9)        =     95.006075     0.000003     0.071816    95.077891
	   19 B(2,1,11)       =    123.045665    -0.000001    -0.007775   123.037890
	   20 B(2,1,13)       =    124.461955     0.000000     0.007410   124.469364
	   21 B(3,11,4)       =    111.493432    -0.000001    -0.007312   111.486119
	   22 B(3,11,12)      =    109.231460    -0.000001     0.003966   109.235425
	   23 B(4,11,12)      =    110.381188     0.000000     0.002823   110.384011
	   24 B(5,6,7)        =    109.218386     0.000001     0.005540   109.223926
	   25 B(5,6,8)        =    108.502297     0.000000     0.005163   108.507460
	   26 B(5,6,9)        =    111.673070    -0.000000    -0.000738   111.672331
	   27 B(6,9,10)       =    109.388207    -0.000001    -0.003098   109.385108
	   28 B(7,6,8)        =    108.938314     0.000000    -0.004702   108.933612
	   29 B(7,6,9)        =    111.711732    -0.000000    -0.001165   111.710566
	   30 B(8,6,9)        =    106.686979    -0.000001    -0.004282   106.682696
	   31 B(9,1,11)       =     88.142759    -0.000004     0.001087    88.143846
	   32 B(9,1,13)       =     90.576527     0.000001    -0.073215    90.503312
	   33 B(11,1,13)      =    112.316693     0.000000    -0.000236   112.316456
	   34 D(1,9,6,5)      =    164.631097    -0.000000    -0.109529   164.521568
	   35 D(1,9,6,7)      =     41.981608    -0.000000    -0.115341    41.866267
	   36 D(1,9,6,8)      =    -76.968868    -0.000000    -0.106315   -77.075184
	   37 D(2,1,9,6)      =    -94.864407    -0.000000    -0.054289   -94.918696
	   38 D(2,1,9,10)     =     17.690392    -0.000000    -0.117402    17.572990
	   39 D(2,1,11,3)     =   -155.035099    -0.000000    -0.098790  -155.133889
	   40 D(2,1,11,4)     =    -31.169162    -0.000000    -0.113498   -31.282659
	   41 D(2,1,11,12)    =     88.043581    -0.000000    -0.108417    87.935164
	   42 D(3,11,1,9)     =    -60.270552     0.000000    -0.012571   -60.283122
	   43 D(3,11,1,13)    =     29.590361    -0.000000    -0.091298    29.499063
	   44 D(4,11,1,9)     =     63.595386     0.000000    -0.027278    63.568108
	   45 D(4,11,1,13)    =    153.456299    -0.000000    -0.106005   153.350293
	   46 D(5,6,9,10)     =     61.578228     0.000000     0.071666    61.649895
	   47 D(6,9,1,11)     =    142.121681     0.000000    -0.047914   142.073767
	   48 D(6,9,1,13)     =     29.811645     0.000000    -0.049957    29.761688
	   49 D(7,6,9,10)     =    -61.071261     0.000000     0.065855   -61.005406
	   50 D(8,6,9,10)     =    179.978263     0.000000     0.074880   180.053143
	   51 D(9,1,11,12)    =   -177.191872    -0.000000    -0.022197  -177.214069
	   52 D(10,9,1,11)    =   -105.323520     0.000000    -0.111027  -105.434547
	   53 D(10,9,1,13)    =    142.366443     0.000000    -0.113069   142.253374
	   54 D(12,11,1,13)   =    -87.330959    -0.000000    -0.100925   -87.431884
	   55 R(3,6)          =      3.899787    -0.000135    -0.000916     3.898872
	 ---------------------------------------------------------------------------
	Successfully symmetrized geometry.

  ==> Convergence Check <==

  Measures of convergence in internal coordinates in au.
  Criteria marked as inactive (o), active & met (*), and active & unmet ( ).
  ---------------------------------------------------------------------------------------------
   Step     Total Energy     Delta E     MAX Force     RMS Force      MAX Disp      RMS Disp   
  ---------------------------------------------------------------------------------------------
    Convergence Criteria    1.00e-06 *    3.00e-04 *             o    1.20e-03 *             o
  ---------------------------------------------------------------------------------------------
     18   -1648.29346203   -1.39e-07 *    6.90e-05 *    2.17e-05 o    2.94e-03      1.15e-03 o  ~
  ---------------------------------------------------------------------------------------------


  **** Optimization is complete! (in 18 steps) ****

  ==> Optimization Summary <==

  Measures of convergence in internal coordinates in au.
  --------------------------------------------------------------------------------------------------------------- ~
   Step         Total Energy             Delta E       MAX Force       RMS Force        MAX Disp        RMS Disp  ~
  --------------------------------------------------------------------------------------------------------------- ~
      1   -1648.291790935461  -1648.291790935461      0.01056747      0.00218763      0.13374820      0.03437952  ~
      2   -1648.292921692253     -0.001130756792      0.00300167      0.00065965      0.14459566      0.04410709  ~
      3   -1648.293208817314     -0.000287125061      0.00228119      0.00069952      0.05259607      0.02158397  ~
      4   -1648.293346667995     -0.000137850681      0.00084931      0.00030591      0.03807363      0.01005506  ~
      5   -1648.293382732130     -0.000036064135      0.00045208      0.00014247      0.02979559      0.00722644  ~
      6   -1648.293400072552     -0.000017340422      0.00032751      0.00010852      0.03875070      0.01079991  ~
      7   -1648.293421275469     -0.000021202917      0.00024617      0.00009007      0.02987182      0.00917791  ~
      8   -1648.293431587939     -0.000010312471      0.00031360      0.00006488      0.01339199      0.00447569  ~
      9   -1648.293434394776     -0.000002806837      0.00008791      0.00003507      0.02197856      0.00612555  ~
     10   -1648.293438056429     -0.000003661653      0.00009056      0.00003532      0.05822430      0.01417721  ~
     11   -1648.293446127675     -0.000008071246      0.00028008      0.00007945      0.13606977      0.03188587  ~
     12   -1648.293442277950      0.000003849724      0.00137848      0.00040842      0.11724990      0.02826621  ~
     13   -1648.293443445820     -0.000001167870      0.00093822      0.00026919      0.02758387      0.00632188  ~
     14   -1648.293452081506     -0.000008635686      0.00028273      0.00008638      0.03052711      0.00632289  ~
     15   -1648.293456983068     -0.000004901563      0.00022044      0.00006255      0.01957342      0.00411199  ~
     16   -1648.293459472359     -0.000002489291      0.00010773      0.00003344      0.02113036      0.00478723  ~
     17   -1648.293461893491     -0.000002421132      0.00011977      0.00003062      0.00216057      0.00090466  ~
     18   -1648.293462032597     -0.000000139106      0.00006898      0.00002170      0.00294154      0.00114672  ~
  --------------------------------------------------------------------------------------------------------------- ~

	Writing optimization data to binary file.
	Final energy is  -1648.2934620325971
	Final (previous) structure:
	Cartesian Geometry (in Angstrom)
	    C     0.0397476194  -0.5601154733  -1.1716792017
	    O    -0.9007365778  -0.5770971270  -1.8962147543
	   CL     1.4040752414   0.2542513462   1.0306575618
	   CL    -1.4963308879   0.4927952867   0.8341951360
	    H     1.2887397569   3.4027922091  -2.5362724301
	    C     1.3072970444   2.3452207827  -2.2597561555
	    H     1.1573382182   1.7352957838  -3.1570102127
	    H     2.2845594447   2.1157955664  -1.8353672081
	    O     0.3487580638   2.0490539334  -1.2580247962
	    H    -0.5321967777   2.2388074396  -1.5931708346
	    C    -0.0823525335  -0.4440127161   0.3697301466
	   CL    -0.2414910192  -2.1337838660   0.9346908665
	    H     1.0835095543  -0.7057734585  -1.4996377136
	Saving final (previous) structure.
	Removing binary optimization data file.
			--------------------------
			 OPTKING Finished Execution 
			--------------------------

    Final optimized geometry and variables:
    Molecular point group: c1
    Full point group: C1

    Geometry (in Angstrom), charge = 0, multiplicity = 1:

    C            0.039747619376    -0.560115473329    -1.171679201693
    O           -0.900736577819    -0.577097127027    -1.896214754315
    CL           1.404075241410     0.254251346208     1.030657561819
    CL          -1.496330887949     0.492795286685     0.834195136018
    H            1.288739756888     3.402792209124    -2.536272430060
    C            1.307297044444     2.345220782678    -2.259756155464
    H            1.157338218214     1.735295783835    -3.157010212653
    H            2.284559444686     2.115795566375    -1.835367208057
    O            0.348758063804     2.049053933431    -1.258024796208
    H           -0.532196777700     2.238807439646    -1.593170834625
    C           -0.082352533527    -0.444012716064     0.369730146615
    CL          -0.241491019163    -2.133783866010     0.934690866505
    H            1.083509554251    -0.705773458548    -1.499637713570

	Removing binary optimization data file.
	Cleaning optimization helper files.

    Psi4 stopped on: Monday, 13 May 2019 12:07PM
    Psi4 wall time for execution: 0:05:01.30

*** Psi4 exiting successfully. Buy a developer a beer!
