
    -----------------------------------------------------------------------
          Psi4: An Open-Source Ab Initio Electronic Structure Package
                               Psi4 1.2.1 release

                         Git: Rev {HEAD} 406f4de 


    R. M. Parrish, L. A. Burns, D. G. A. Smith, A. C. Simmonett,
    A. E. DePrince III, E. G. Hohenstein, U. Bozkaya, A. Yu. Sokolov,
    R. Di Remigio, R. M. Richard, J. F. Gonthier, A. M. James,
    H. R. McAlexander, A. Kumar, M. Saitow, X. Wang, B. P. Pritchard,
    P. Verma, H. F. Schaefer III, K. Patkowski, R. A. King, E. F. Valeev,
    F. A. Evangelista, J. M. Turney, T. D. Crawford, and C. D. Sherrill,
    J. Chem. Theory Comput. 13(7) pp 3185--3197 (2017).
    (doi: 10.1021/acs.jctc.7b00174)


                         Additional Contributions by
    P. Kraus, H. Kruse, M. H. Lechner, M. C. Schieber, and R. A. Shaw

    -----------------------------------------------------------------------


    Psi4 started on: Tuesday, 15 January 2019 04:33PM

    Process ID: 36850
    Host:       localhost.localdomain
    PSIDATADIR: /root/psi4conda/share/psi4
    Memory:     500.0 MiB
    Threads:    1
    
  ==> Input File <==

--------------------------------------------------------------------------
molecule{
0 1
 N  -0.9212862016   0.2426167092   0.5919490556  
 N   1.3937572257  -0.2598049576  -0.0333292051  
 O   0.5313915150  -0.8600141985  -0.8741478520  
 C  -0.9374945439  -0.6165350072  -0.3631641670  
 O  -1.7079703465  -1.2838484964  -1.0001613920  
 C   0.7280376494   1.9429916745  -0.8859546938  
 C   1.9145706569  -1.1443581281   0.9946128356  
 H   1.0758410188  -1.4655957906   1.6131569551  
 H   2.3699591919  -1.9996563756   0.5048508128  
 H   2.6527357465  -0.6129868592   1.5891524340  
 C  -2.2114750416   0.6712669187   1.0915356359  
 H  -3.0228756920   0.0891213561   0.6472964044  
 H  -2.2537464013   0.5632990528   2.1762285376  
 H  -2.3846517311   1.7267248678   0.8614878303  
 C   1.2190338205   1.0069292021   0.1508177612  
 H   0.2531976761   1.4128634817  -1.7042302426  
 H   0.0233823665   2.6395548385  -0.4377973746  
 H   1.5826575837   2.5155197173  -1.2579510805  
 H   1.7109845070   1.4124339945   1.0280247451  

}

set{
   basis 6-31+G(d)
   freeze_core True
   opt_type ts
}

optimize('scf')
--------------------------------------------------------------------------
gradient() will perform analytic gradient computation.

*** tstart() called on localhost.localdomain
*** at Tue Jan 15 16:33:08 2019

   => Loading Basis Set <=

    Name: 6-31+G(D)
    Role: ORBITAL
    Keyword: BASIS
    atoms 1-2                entry N          line   138 file /root/psi4conda/share/psi4/basis/6-31pg_d_.gbs 
    atoms 3, 5               entry O          line   157 file /root/psi4conda/share/psi4/basis/6-31pg_d_.gbs 
    atoms 4, 6-7, 11, 15     entry C          line   119 file /root/psi4conda/share/psi4/basis/6-31pg_d_.gbs 
    atoms 8-10, 12-14, 16-19 entry H          line    46 file /root/psi4conda/share/psi4/basis/6-31pg_d_.gbs 


         ---------------------------------------------------------
                                   SCF
            by Justin Turney, Rob Parrish, Andy Simmonett
                             and Daniel Smith
                              RHF Reference
                        1 Threads,    500 MiB Core
         ---------------------------------------------------------

  ==> Geometry <==

    Molecular point group: c1
    Full point group: C1

    Geometry (in Angstrom), charge = 0, multiplicity = 1:

       Center              X                  Y                   Z               Mass       
    ------------   -----------------  -----------------  -----------------  -----------------
         N           -0.908770518229     0.287803398200     0.632259503412    14.003074004780
         N            1.406272909071    -0.214618268600     0.006981242712    14.003074004780
         O            0.543907198371    -0.814827509500    -0.833837404188    15.994914619560
         C           -0.924978860529    -0.571348318200    -0.322853719188    12.000000000000
         O           -1.695454663129    -1.238661807400    -0.959850944188    15.994914619560
         C            0.740553332771     1.988178363500    -0.845644245988    12.000000000000
         C            1.927086340271    -1.099171439100     1.034923283412    12.000000000000
         H            1.088356702171    -1.420409101600     1.653467402912     1.007825032070
         H            2.382474875271    -1.954469686600     0.545161260612     1.007825032070
         H            2.665251429871    -0.567800170200     1.629462881812     1.007825032070
         C           -2.198959358229     0.716453607700     1.131846083712    12.000000000000
         H           -3.010360008629     0.134308045100     0.687606852212     1.007825032070
         H           -2.241230717929     0.608485741800     2.216538985412     1.007825032070
         H           -2.372136047729     1.771911556800     0.901798278112     1.007825032070
         C            1.231549503871     1.052115891100     0.191128209012    12.000000000000
         H            0.265713359471     1.458050170700    -1.663919794788     1.007825032070
         H            0.035898049871     2.684741527500    -0.397486926788     1.007825032070
         H            1.595173267071     2.560706406300    -1.217640632688     1.007825032070
         H            1.723500190371     1.457620683500     1.068335192912     1.007825032070

  Running in c1 symmetry.

  Rotational constants: A =      0.07106  B =      0.04756  C =      0.04033 [cm^-1]
  Rotational constants: A =   2130.22400  B =   1425.68071  C =   1208.94618 [MHz]
  Nuclear repulsion =  489.752803953702198

  Charge       = 0
  Multiplicity = 1
  Electrons    = 70
  Nalpha       = 35
  Nbeta        = 35

  ==> Algorithm <==

  SCF Algorithm Type is DF.
  DIIS enabled.
  MOM disabled.
  Fractional occupation disabled.
  Guess Type is SAD.
  Energy threshold   = 1.00e-08
  Density threshold  = 1.00e-08
  Integral threshold = 0.00e+00

  ==> Primary Basis <==

  Basis Set: 6-31+G(D)
    Blend: 6-31+G(D)
    Number of shells: 92
    Number of basis function: 191
    Number of Cartesian functions: 191
    Spherical Harmonics?: false
    Max angular momentum: 2

   => Loading Basis Set <=

    Name: (6-31+G(D) AUX)
    Role: JKFIT
    Keyword: DF_BASIS_SCF
    atoms 1-2                entry N          line   252 file /root/psi4conda/share/psi4/basis/heavy-aug-cc-pvdz-jkfit.gbs 
    atoms 3, 5               entry O          line   310 file /root/psi4conda/share/psi4/basis/heavy-aug-cc-pvdz-jkfit.gbs 
    atoms 4, 6-7, 11, 15     entry C          line   194 file /root/psi4conda/share/psi4/basis/heavy-aug-cc-pvdz-jkfit.gbs 
    atoms 8-10, 12-14, 16-19 entry H          line   116 file /root/psi4conda/share/psi4/basis/heavy-aug-cc-pvdz-jkfit.gbs 

  ==> Pre-Iterations <==

   -------------------------------------------------------
    Irrep   Nso     Nmo     Nalpha   Nbeta   Ndocc  Nsocc
   -------------------------------------------------------
     A        191     191       0       0       0       0
   -------------------------------------------------------
    Total     191     191      35      35      35       0
   -------------------------------------------------------

  ==> Integral Setup <==

  ==> DiskDFJK: Density-Fitted J/K Matrices <==

    J tasked:                  Yes
    K tasked:                  Yes
    wK tasked:                  No
    OpenMP threads:              1
    Integrals threads:           1
    Memory (MB):               375
    Algorithm:                Core
    Integral Cache:           NONE
    Schwarz Cutoff:          1E-12
    Fitting Condition:       1E-12

   => Auxiliary Basis Set <=

  Basis Set: (6-31+G(D) AUX)
    Blend: HEAVY-AUG-CC-PVDZ-JKFIT
    Number of shells: 342
    Number of basis function: 1159
    Number of Cartesian functions: 1159
    Spherical Harmonics?: false
    Max angular momentum: 3

  Minimum eigenvalue in the overlap matrix is 5.3983609441E-05.
  Using Symmetric Orthogonalization.

  SCF Guess: Superposition of Atomic Densities via on-the-fly atomic UHF.

  ==> Iterations <==

                           Total Energy        Delta E     RMS |[F,P]|

   @DF-RHF iter   0:  -457.03460731655764   -4.57035e+02   2.90111e-02 
   @DF-RHF iter   1:  -453.39082355245387    3.64378e+00   3.39614e-03 
   @DF-RHF iter   2:  -453.59377452652467   -2.02951e-01   2.01325e-03 DIIS
   @DF-RHF iter   3:  -453.65485053462055   -6.10760e-02   5.51165e-04 DIIS
   @DF-RHF iter   4:  -453.66426613991820   -9.41561e-03   1.78511e-04 DIIS
   @DF-RHF iter   5:  -453.66531276193581   -1.04662e-03   7.09101e-05 DIIS
   @DF-RHF iter   6:  -453.66555503349787   -2.42272e-04   2.76886e-05 DIIS
   @DF-RHF iter   7:  -453.66559687950621   -4.18460e-05   1.11543e-05 DIIS
   @DF-RHF iter   8:  -453.66560215208295   -5.27258e-06   3.75802e-06 DIIS
   @DF-RHF iter   9:  -453.66560299499537   -8.42912e-07   1.56213e-06 DIIS
   @DF-RHF iter  10:  -453.66560312585500   -1.30860e-07   5.97307e-07 DIIS
   @DF-RHF iter  11:  -453.66560315407798   -2.82230e-08   2.27735e-07 DIIS
   @DF-RHF iter  12:  -453.66560315734415   -3.26617e-09   9.56104e-08 DIIS
   @DF-RHF iter  13:  -453.66560315784352   -4.99369e-10   3.28790e-08 DIIS
   @DF-RHF iter  14:  -453.66560315790326   -5.97424e-11   1.37381e-08 DIIS
   @DF-RHF iter  15:  -453.66560315790974   -6.48015e-12   6.06904e-09 DIIS

  ==> Post-Iterations <==

    Orbital Energies [Eh]
    ---------------------

    Doubly Occupied:                                                      

       1A    -20.619381     2A    -20.509448     3A    -15.707000  
       4A    -15.517845     5A    -11.381862     6A    -11.364117  
       7A    -11.295573     8A    -11.267405     9A    -11.231675  
      10A     -1.492029    11A     -1.363944    12A     -1.222629  
      13A     -1.185638    14A     -1.081671    15A     -0.982825  
      16A     -0.926925    17A     -0.846991    18A     -0.760706  
      19A     -0.734496    20A     -0.703245    21A     -0.669890  
      22A     -0.630969    23A     -0.624223    24A     -0.610975  
      25A     -0.596814    26A     -0.592058    27A     -0.585213  
      28A     -0.573102    29A     -0.544859    30A     -0.534865  
      31A     -0.490222    32A     -0.464624    33A     -0.437886  
      34A     -0.372560    35A     -0.337762  

    Virtual:                                                              

      36A      0.046944    37A      0.069636    38A      0.071300  
      39A      0.079650    40A      0.090040    41A      0.102536  
      42A      0.110976    43A      0.114327    44A      0.116202  
      45A      0.127139    46A      0.137291    47A      0.144307  
      48A      0.156961    49A      0.162062    50A      0.171414  
      51A      0.179123    52A      0.185177    53A      0.194479  
      54A      0.209602    55A      0.220068    56A      0.236897  
      57A      0.251991    58A      0.262607    59A      0.287162  
      60A      0.298091    61A      0.314728    62A      0.321848  
      63A      0.329907    64A      0.340843    65A      0.355474  
      66A      0.360141    67A      0.367436    68A      0.373007  
      69A      0.378951    70A      0.381667    71A      0.392379  
      72A      0.405613    73A      0.408186    74A      0.416214  
      75A      0.425463    76A      0.442285    77A      0.448512  
      78A      0.456661    79A      0.470562    80A      0.473305  
      81A      0.484207    82A      0.494392    83A      0.506876  
      84A      0.530630    85A      0.547811    86A      0.559625  
      87A      0.586229    88A      0.592167    89A      0.607370  
      90A      0.678985    91A      0.827577    92A      0.843564  
      93A      0.864350    94A      0.901072    95A      0.913317  
      96A      0.946810    97A      0.950969    98A      0.961584  
      99A      0.978271   100A      0.990357   101A      1.009352  
     102A      1.011943   103A      1.040499   104A      1.070817  
     105A      1.111290   106A      1.145649   107A      1.161509  
     108A      1.184752   109A      1.187464   110A      1.204556  
     111A      1.217674   112A      1.246326   113A      1.246887  
     114A      1.257681   115A      1.281284   116A      1.301152  
     117A      1.330319   118A      1.344429   119A      1.352445  
     120A      1.373819   121A      1.404922   122A      1.447205  
     123A      1.467446   124A      1.495625   125A      1.513775  
     126A      1.558375   127A      1.604510   128A      1.623720  
     129A      1.626647   130A      1.639567   131A      1.661268  
     132A      1.677868   133A      1.713263   134A      1.717466  
     135A      1.731989   136A      1.791832   137A      1.836843  
     138A      1.852964   139A      1.887049   140A      1.929462  
     141A      1.946945   142A      1.981348   143A      2.015315  
     144A      2.048848   145A      2.139847   146A      2.148871  
     147A      2.180718   148A      2.221850   149A      2.240904  
     150A      2.250112   151A      2.295912   152A      2.328793  
     153A      2.351080   154A      2.366904   155A      2.420290  
     156A      2.429006   157A      2.487783   158A      2.500385  
     159A      2.549409   160A      2.563061   161A      2.572842  
     162A      2.580772   163A      2.598447   164A      2.628962  
     165A      2.658457   166A      2.705925   167A      2.724251  
     168A      2.756369   169A      2.797815   170A      2.828470  
     171A      2.896228   172A      2.951202   173A      3.072284  
     174A      3.156766   175A      3.169831   176A      3.194937  
     177A      3.218877   178A      3.280710   179A      3.398711  
     180A      3.516609   181A      3.555069   182A      3.737017  
     183A      4.579344   184A      4.661302   185A      4.687028  
     186A      4.788423   187A      4.853347   188A      4.883630  
     189A      4.900884   190A      5.035280   191A      5.133986  

    Final Occupation by Irrep:
              A 
    DOCC [    35 ]

  Energy converged.

  @DF-RHF Final Energy:  -453.66560315790974

   => Energetics <=

    Nuclear Repulsion Energy =            489.7528039537021982
    One-Electron Energy =               -1590.3139617875222029
    Two-Electron Energy =                 646.8955546759103754
    Total Energy =                       -453.6656031579096862



Properties will be evaluated at   0.000000,   0.000000,   0.000000 [a0]

Properties computed using the SCF density matrix

  Nuclear Dipole Moment: [e a0]
     X:     1.9923      Y:     6.3020      Z:     5.0737

  Electronic Dipole Moment: [e a0]
     X:     0.4116      Y:    -4.5220      Z:    -3.7801

  Dipole Moment: [e a0]
     X:     2.4039      Y:     1.7800      Z:     1.2936     Total:     3.2589

  Dipole Moment: [D]
     X:     6.1101      Y:     4.5243      Z:     3.2880     Total:     8.2833


*** tstop() called on localhost.localdomain at Tue Jan 15 16:33:21 2019
Module time:
	user time   =      13.03 seconds =       0.22 minutes
	system time =       0.36 seconds =       0.01 minutes
	total time  =         13 seconds =       0.22 minutes
Total time:
	user time   =      13.03 seconds =       0.22 minutes
	system time =       0.36 seconds =       0.01 minutes
	total time  =         13 seconds =       0.22 minutes

*** tstart() called on localhost.localdomain
*** at Tue Jan 15 16:33:21 2019


         ------------------------------------------------------------
                                   SCF GRAD                          
                          Rob Parrish, Justin Turney,                
                       Andy Simmonett, and Alex Sokolov              
         ------------------------------------------------------------

  ==> Geometry <==

    Molecular point group: c1
    Full point group: C1

    Geometry (in Angstrom), charge = 0, multiplicity = 1:

       Center              X                  Y                   Z               Mass       
    ------------   -----------------  -----------------  -----------------  -----------------
         N           -0.908770518229     0.287803398200     0.632259503412    14.003074004780
         N            1.406272909071    -0.214618268600     0.006981242712    14.003074004780
         O            0.543907198371    -0.814827509500    -0.833837404188    15.994914619560
         C           -0.924978860529    -0.571348318200    -0.322853719188    12.000000000000
         O           -1.695454663129    -1.238661807400    -0.959850944188    15.994914619560
         C            0.740553332771     1.988178363500    -0.845644245988    12.000000000000
         C            1.927086340271    -1.099171439100     1.034923283412    12.000000000000
         H            1.088356702171    -1.420409101600     1.653467402912     1.007825032070
         H            2.382474875271    -1.954469686600     0.545161260612     1.007825032070
         H            2.665251429871    -0.567800170200     1.629462881812     1.007825032070
         C           -2.198959358229     0.716453607700     1.131846083712    12.000000000000
         H           -3.010360008629     0.134308045100     0.687606852212     1.007825032070
         H           -2.241230717929     0.608485741800     2.216538985412     1.007825032070
         H           -2.372136047729     1.771911556800     0.901798278112     1.007825032070
         C            1.231549503871     1.052115891100     0.191128209012    12.000000000000
         H            0.265713359471     1.458050170700    -1.663919794788     1.007825032070
         H            0.035898049871     2.684741527500    -0.397486926788     1.007825032070
         H            1.595173267071     2.560706406300    -1.217640632688     1.007825032070
         H            1.723500190371     1.457620683500     1.068335192912     1.007825032070

  Nuclear repulsion =  489.752803953702198

  ==> Basis Set <==

  Basis Set: 6-31+G(D)
    Blend: 6-31+G(D)
    Number of shells: 92
    Number of basis function: 191
    Number of Cartesian functions: 191
    Spherical Harmonics?: false
    Max angular momentum: 2

  ==> DFJKGrad: Density-Fitted SCF Gradients <==

    Gradient:                    1
    J tasked:                  Yes
    K tasked:                  Yes
    wK tasked:                  No
    OpenMP threads:              1
    Integrals threads:           1
    Memory (MB):               375
    Schwarz Cutoff:          0E+00
    Fitting Condition:       1E-12

   => Auxiliary Basis Set <=

  Basis Set: (6-31+G(D) AUX)
    Blend: HEAVY-AUG-CC-PVDZ-JKFIT
    Number of shells: 342
    Number of basis function: 1159
    Number of Cartesian functions: 1159
    Spherical Harmonics?: false
    Max angular momentum: 3


  -Total Gradient:
     Atom            X                  Y                   Z
    ------   -----------------  -----------------  -----------------
       1        0.004107519926     0.006372069296     0.008546150753
       2        0.000967163199    -0.011564630660    -0.000164124883
       3        0.015627848835    -0.007969417995    -0.012013254663
       4       -0.004720151769     0.010017100881     0.007356573116
       5       -0.010463915952    -0.010649130078    -0.009242397773
       6        0.005212613097    -0.006069980884     0.005307779402
       7        0.002800662427     0.002514663110    -0.002229493136
       8       -0.006339009136    -0.000189673639     0.001972920693
       9        0.001600279921    -0.004206763880    -0.002512381316
      10        0.002693553125     0.002836215034     0.002236287579
      11        0.005028584474     0.002080712514     0.000838811046
      12       -0.002636949525    -0.003950916010    -0.003806534622
      13       -0.000447912240    -0.000085155994     0.003856302064
      14       -0.000904815365     0.003727942787    -0.000677075111
      15       -0.013312132286     0.014565559590    -0.002343777016
      16       -0.002933300053    -0.004276003062    -0.003346980277
      17       -0.003160404251     0.002491945669     0.002273893482
      18        0.002387189521     0.002720690307    -0.001481044934
      19        0.004493176054     0.001634773010     0.005428345593


*** tstop() called on localhost.localdomain at Tue Jan 15 16:33:30 2019
Module time:
	user time   =       8.97 seconds =       0.15 minutes
	system time =       0.22 seconds =       0.00 minutes
	total time  =          9 seconds =       0.15 minutes
Total time:
	user time   =      22.01 seconds =       0.37 minutes
	system time =       0.58 seconds =       0.01 minutes
	total time  =         22 seconds =       0.37 minutes

			-----------------------------------------
			 OPTKING 2.0: for geometry optimizations 
			  - R.A. King,  Bethel University        
			-----------------------------------------

	Internal coordinates to be generated automatically.
	Detected frag 1 with atoms:  1 2 3 4 5 6 7 8 9 10 11 12 13 14 15 16 17 18 19
	---Fragment 1 Bond Connectivity---
	 1 : 4 11
	 2 : 3 7 15
	 3 : 2 4
	 4 : 1 3 5
	 5 : 4
	 6 : 15 16 17 18
	 7 : 2 8 9 10
	 8 : 7
	 9 : 7
	 10 : 7
	 11 : 1 12 13 14
	 12 : 11
	 13 : 11
	 14 : 11
	 15 : 2 6 19
	 16 : 6
	 17 : 6
	 18 : 6
	 19 : 15

	---Fragment 1 Geometry and Gradient---
	 N          -1.7173273971        0.5438696027        1.1947973064
	 N           2.6574706662       -0.4055697508        0.0131926368
	 O           1.0278356466       -1.5398008385       -1.5757243333
	 C          -1.7479567251       -1.0796918479       -0.6101051102
	 O          -3.2039449840       -2.3407315873       -1.8138554129
	 C           1.3994429857        3.7571126103       -1.5980360308
	 C           3.6416654175       -2.0771329930        1.9557215742
	 H           2.0566961020       -2.6841841987        3.1246005612
	 H           4.5022250327       -3.6934124427        1.0302054808
	 H           5.0365952777       -1.0729868199        3.0792385903
	 C          -4.1554309644        1.3539011055        2.1388791228
	 H          -5.6887559777        0.2538054227        1.2993886378
	 H          -4.2353122575        1.1498714078        4.1886516453
	 H          -4.4826874802        3.3484275740        1.7041517727
	 C           2.3272912814        1.9882108942        0.3611799713
	 H           0.5021254792        2.7553155106       -3.1443527192
	 H           0.0678374830        5.0734262246       -0.7511414330
	 H           3.0144406093        4.8390338146       -2.3010073241
	 H           3.2569433498        2.7545038974        2.0188609327
	             0.0041075199        0.0063720693        0.0085461508
	             0.0009671632       -0.0115646307       -0.0001641249
	             0.0156278488       -0.0079694180       -0.0120132547
	            -0.0047201518        0.0100171009        0.0073565731
	            -0.0104639160       -0.0106491301       -0.0092423978
	             0.0052126131       -0.0060699809        0.0053077794
	             0.0028006624        0.0025146631       -0.0022294931
	            -0.0063390091       -0.0001896736        0.0019729207
	             0.0016002799       -0.0042067639       -0.0025123813
	             0.0026935531        0.0028362150        0.0022362876
	             0.0050285845        0.0020807125        0.0008388110
	            -0.0026369495       -0.0039509160       -0.0038065346
	            -0.0004479122       -0.0000851560        0.0038563021
	            -0.0009048154        0.0037279428       -0.0006770751
	            -0.0133121323        0.0145655596       -0.0023437770
	            -0.0029333001       -0.0042760031       -0.0033469803
	            -0.0031604043        0.0024919457        0.0022738935
	             0.0023871895        0.0027206903       -0.0014810449
	             0.0044931761        0.0016347730        0.0054283456

	Previous optimization step data not found.  Starting new optimization.

	---Fragment 1 Intrafragment Coordinates---
	 - Coordinate -           - BOHR/RAD -       - ANG/DEG -
	 R(1,4)           =         2.427872	       1.284775
	 R(1,11)          =         2.737114	       1.448418
	 R(2,3)           =         2.543000	       1.345697
	 R(2,7)           =         2.745211	       1.452703
	 R(2,15)          =         2.441372	       1.291919
	 R(3,4)           =         2.974751	       1.574170
	 R(4,5)           =         2.271374	       1.201959
	 R(6,15)          =         2.797936	       1.480604
	 R(6,16)          =         2.049359	       1.084474
	 R(6,17)          =         2.055015	       1.087467
	 R(6,18)          =         2.067109	       1.093867
	 R(7,8)           =         2.060805	       1.090531
	 R(7,9)           =         2.051707	       1.085717
	 R(7,10)          =         2.053395	       1.086610
	 R(11,12)         =         2.065440	       1.092984
	 R(11,13)         =         2.061450	       1.090872
	 R(11,14)         =         2.067419	       1.094031
	 R(15,19)         =         2.049235	       1.084408
	 B(1,4,3)         =         1.910252	     109.449384
	 B(1,4,5)         =         2.454877	     140.654103
	 B(1,11,12)       =         1.942772	     111.312638
	 B(1,11,13)       =         1.926437	     110.376713
	 B(1,11,14)       =         1.932621	     110.731036
	 B(2,3,4)         =         1.903040	     109.036168
	 B(2,7,8)         =         1.880716	     107.757073
	 B(2,7,9)         =         1.886885	     108.110549
	 B(2,7,10)        =         1.910229	     109.448075
	 B(2,15,6)        =         2.171147	     124.397546
	 B(2,15,19)       =         2.004903	     114.872453
	 B(3,2,7)         =         1.982630	     113.596344
	 B(3,2,15)        =         2.026081	     116.085912
	 B(3,4,5)         =         1.917971	     109.891652
	 B(4,1,11)        =         2.029829	     116.300633
	 B(6,15,19)       =         2.071987	     118.716082
	 B(7,2,15)        =         2.146777	     123.001282
	 B(8,7,9)         =         1.924521	     110.266920
	 B(8,7,10)        =         1.934974	     110.865871
	 B(9,7,10)        =         1.925292	     110.311109
	 B(12,11,13)      =         1.899336	     108.823959
	 B(12,11,14)      =         1.886898	     108.111316
	 B(13,11,14)      =         1.873849	     107.363612
	 B(15,6,16)       =         1.943898	     111.377125
	 B(15,6,17)       =         1.908440	     109.345583
	 B(15,6,18)       =         1.885932	     108.055943
	 B(16,6,17)       =         1.918086	     109.898232
	 B(16,6,18)       =         1.919142	     109.958737
	 B(17,6,18)       =         1.887196	     108.128384
	 D(1,4,3,2)       =         0.163733	       9.381217
	 D(2,3,4,5)       =        -2.988874	    -171.249855
	 D(2,15,6,16)     =         0.302162	      17.312587
	 D(2,15,6,17)     =         2.425434	     138.967112
	 D(2,15,6,18)     =        -1.807493	    -103.561731
	 D(3,2,7,8)       =        -1.105048	     -63.314573
	 D(3,2,7,9)       =         0.974877	      55.856343
	 D(3,2,7,10)      =         3.072499	     176.041200
	 D(3,2,15,6)      =        -0.588387	     -33.712093
	 D(3,2,15,19)     =         2.839750	     162.705708
	 D(3,4,1,11)      =         3.044985	     174.464792
	 D(4,1,11,12)     =         0.124235	       7.118121
	 D(4,1,11,13)     =         2.235314	     128.074032
	 D(4,1,11,14)     =        -1.975304	    -113.176583
	 D(4,3,2,7)       =         1.649909	      94.532799
	 D(4,3,2,15)      =        -0.987610	     -56.585885
	 D(5,4,1,11)      =        -0.080271	      -4.599192
	 D(6,15,2,7)      =         3.109170	     178.142326
	 D(7,2,15,19)     =         0.254122	      14.560127
	 D(8,7,2,15)      =         1.492909	      85.537404
	 D(9,7,2,15)      =        -2.710351	    -155.291680
	 D(10,7,2,15)     =        -0.612730	     -35.106823
	 D(16,6,15,19)    =        -3.136149	    -179.688120
	 D(17,6,15,19)    =        -1.012877	     -58.033594
	 D(18,6,15,19)    =         1.037381	      59.437563
	 R(1,6)           =         5.276278	       2.792086
	 R(1,7)           =         6.013939	       3.182440
	 R(1,15)          =         4.374926	       2.315111
	 R(4,6)           =         5.854640	       3.098142
	 R(6,11)          =         7.113128	       3.764105
	 R(11,15)         =         6.751907	       3.572955

	Current energy   :      -453.6656031579

	Generating empirical Hessian (Schlegel '84) for each fragment.
	Taking PRFO optimization step.
	Maximizing along 1 lowest eigenvalue of Hessian.

 RFO min eigenvalues
 -0.004294 -0.000000 -0.000000 -0.000000 -0.000000 -0.000000 -0.000000 -0.000000
 -0.000000 -0.000000 -0.000000 -0.000000  0.000000  0.000000  0.000000  0.000000
  0.000000  0.000000  0.000000  0.000000  0.000000  0.000000  0.000000  0.000000
  0.000000  0.000000  0.000000  0.004596  0.005160  0.006359  0.007512  0.012397
  0.014969  0.016938  0.020001  0.023155  0.024341  0.032775  0.068658  0.072881
  0.074766  0.076636  0.077060  0.097094  0.098623  0.153868  0.160000  0.160000
  0.160000  0.160000  0.160000  0.160000  0.160000  0.160000  0.160306  0.160664
  0.202033  0.224768  0.244517  0.249987  0.255013  0.316958  0.337102  0.343540
  0.343738  0.344790  0.347153  0.347627  0.351125  0.352127  0.353195  0.354618
  0.354912  0.357781  0.539516  0.661095  0.703293  1.038744

 RFO max eigenvalues
 -0.000000  0.000000
	|RFO target step|  :        0.2428654364
	RFO gradient       :       -0.0176800771
	RFO hessian        :        0.0688533045
	Projected Delta(E) :       -0.0021372106

	Back-transformation to cartesian coordinates...
	Successfully converged to displaced geometry.
	First geometry is closer to target in internal coordinates, so am using that one.
	First geometry has RMS(Delta(q)) = 7.78e-03

	--- Internal Coordinate Step in ANG or DEG, aJ/ANG or AJ/DEG ---
	 ---------------------------------------------------------------------------
	   Coordinate                Previous        Force       Change         New 
	   ----------                --------       ------       ------       ------
	    1 R(1,4)          =      1.284775    -0.097431    -0.006947     1.277827
	    2 R(1,11)         =      1.448418    -0.009085    -0.001040     1.447378
	    3 R(2,3)          =      1.345697    -0.027380    -0.003044     1.342654
	    4 R(2,7)          =      1.452703     0.007501     0.000363     1.453066
	    5 R(2,15)         =      1.291919    -0.115758    -0.010644     1.281275
	    6 R(3,4)          =      1.574170    -0.144143    -0.035464     1.538706
	    7 R(4,5)          =      1.201959    -0.144326    -0.007627     1.194332
	    8 R(6,15)         =      1.480604     0.041330     0.007052     1.487656
	    9 R(6,16)         =      1.084474    -0.048609    -0.008070     1.076404
	   10 R(6,17)         =      1.087467    -0.037743    -0.006462     1.081004
	   11 R(6,18)         =      1.093867    -0.031247    -0.005539     1.088328
	   12 R(7,8)          =      1.090531    -0.049846    -0.008585     1.081946
	   13 R(7,9)          =      1.085717    -0.042170    -0.007417     1.078300
	   14 R(7,10)         =      1.086610    -0.036583    -0.006305     1.080305
	   15 R(11,12)        =      1.092984    -0.046212    -0.004065     1.088919
	   16 R(11,13)        =      1.090872    -0.031803    -0.002226     1.088646
	   17 R(11,14)        =      1.094031    -0.031984    -0.003038     1.090992
	   18 R(15,19)        =      1.084408    -0.058007    -0.010357     1.074052
	   19 B(1,4,3)        =    109.449384    -0.000111    -0.418011   109.031373
	   20 B(1,4,5)        =    140.654103    -0.000024    -0.062186   140.591917
	   21 B(1,11,12)      =    111.312638     0.000294     1.452419   112.765057
	   22 B(1,11,13)      =    110.376713    -0.000101    -0.690767   109.685947
	   23 B(1,11,14)      =    110.731036    -0.000074    -0.415222   110.315814
	   24 B(2,3,4)        =    109.036168     0.000570     1.692856   110.729024
	   25 B(2,7,8)        =    107.757073     0.000324     1.649142   109.406215
	   26 B(2,7,9)        =    108.110549    -0.000042    -0.299606   107.810944
	   27 B(2,7,10)       =    109.448075     0.000018     0.033842   109.481916
	   28 B(2,15,6)       =    124.397546     0.000238     0.736147   125.133693
	   29 B(2,15,19)      =    114.872453    -0.000015     0.300647   115.173100
	   30 B(3,2,7)        =    113.596344    -0.000077    -0.086288   113.510056
	   31 B(3,2,15)       =    116.085912    -0.000034    -0.035591   116.050321
	   32 B(3,4,5)        =    109.891652     0.000134     0.419386   110.311038
	   33 B(4,1,11)       =    116.300633     0.000179     0.350603   116.651236
	   34 B(6,15,19)      =    118.716082    -0.000215    -0.566952   118.149131
	   35 B(7,2,15)       =    123.001282     0.000132     0.427596   123.428878
	   36 B(8,7,9)        =    110.266920    -0.000100    -0.317379   109.949541
	   37 B(8,7,10)       =    110.865871    -0.000119    -0.387906   110.477965
	   38 B(9,7,10)       =    110.311109    -0.000069    -0.643636   109.667473
	   39 B(12,11,13)     =    108.823959    -0.000086    -0.344237   108.479722
	   40 B(12,11,14)     =    108.111316    -0.000052    -0.039203   108.072113
	   41 B(13,11,14)     =    107.363612     0.000009    -0.010365   107.353248
	   42 B(15,6,16)      =    111.377125     0.000199     1.006407   112.383532
	   43 B(15,6,17)      =    109.345583     0.000057     0.365012   109.710595
	   44 B(15,6,18)      =    108.055943    -0.000158    -0.912741   107.143202
	   45 B(16,6,17)      =    109.898232    -0.000053     0.055786   109.954018
	   46 B(16,6,18)      =    109.958737    -0.000061    -0.449001   109.509737
	   47 B(17,6,18)      =    108.128384     0.000011    -0.119666   108.008719
	   48 D(1,4,3,2)      =      9.381217     0.000023     4.957846    14.339063
	   49 D(2,3,4,5)      =   -171.249855     0.000013     3.268214  -167.981640
	   50 D(2,15,6,16)    =     17.312587    -0.000014    -1.457079    15.855508
	   51 D(2,15,6,17)    =    138.967112     0.000009    -0.456009   138.511103
	   52 D(2,15,6,18)    =   -103.561731    -0.000002    -0.914751  -104.476482
	   53 D(3,2,7,8)      =    -63.314573     0.000001     0.559610   -62.754962
	   54 D(3,2,7,9)      =     55.856343     0.000010     0.935436    56.791778
	   55 D(3,2,7,10)     =    176.041200    -0.000013     0.001003   176.042203
	   56 D(3,2,15,6)     =    -33.712093    -0.000018     0.695098   -33.016995
	   57 D(3,2,15,19)    =    162.705708    -0.000016    -1.218902   161.486807
	   58 D(3,4,1,11)     =    174.464792     0.000016     0.095773   174.560564
	   59 D(4,1,11,12)    =      7.118121     0.000007     0.992943     8.111065
	   60 D(4,1,11,13)    =    128.074032     0.000011     1.049417   129.123449
	   61 D(4,1,11,14)    =   -113.176583    -0.000011     0.350348  -112.826235
	   62 D(4,3,2,7)      =     94.532799     0.000000    -2.027196    92.505602
	   63 D(4,3,2,15)     =    -56.585885    -0.000018    -2.714555   -59.300440
	   64 D(5,4,1,11)     =     -4.599192     0.000029     2.589145    -2.010047
	   65 D(6,15,2,7)     =    178.142326    -0.000021     0.113678   178.256004
	   66 D(7,2,15,19)    =     14.560127    -0.000019    -1.800321    12.759806
	   67 D(8,7,2,15)     =     85.537404     0.000007     1.137191    86.674595
	   68 D(9,7,2,15)     =   -155.291680     0.000015     1.513017  -153.778664
	   69 D(10,7,2,15)    =    -35.106823    -0.000007     0.578584   -34.528239
	   70 D(16,6,15,19)   =   -179.688120    -0.000009     0.647732  -179.040388
	   71 D(17,6,15,19)   =    -58.033594     0.000014     1.648802   -56.384792
	   72 D(18,6,15,19)   =     59.437563     0.000004     1.190060    60.627623
	   73 R(1,6)          =      2.792086     0.004318     0.002039     2.794125
	   74 R(1,7)          =      3.182440    -0.002727     0.021283     3.203722
	   75 R(1,15)         =      2.315111     0.025269     0.024927     2.340038
	   76 R(4,6)          =      3.098142     0.010074     0.052368     3.150510
	   77 R(6,11)         =      3.764105    -0.005166     0.026170     3.790275
	   78 R(11,15)        =      3.572955     0.017206     0.036428     3.609384
	 ---------------------------------------------------------------------------
	Successfully symmetrized geometry.

  ==> Convergence Check <==

  Measures of convergence in internal coordinates in au.
  Criteria marked as inactive (o), active & met (*), and active & unmet ( ).
  --------------------------------------------------------------------------------------------- ~
   Step     Total Energy     Delta E     MAX Force     RMS Force      MAX Disp      RMS Disp    ~
  --------------------------------------------------------------------------------------------- ~
    Convergence Criteria    1.00e-06 *    3.00e-04 *             o    1.20e-03 *             o  ~
  --------------------------------------------------------------------------------------------- ~
      1    -453.66560316   -4.54e+02      1.75e-02      4.28e-03 o    9.90e-02      2.64e-02 o  ~
  ---------------------------------------------------------------------------------------------

	Writing optimization data to binary file.
	Structure for next step:
	Cartesian Geometry (in Angstrom)
	    N    -0.9272796531   0.3079480909   0.5979187133
	    N     1.3950520351  -0.2073373693   0.0097400376
	    O     0.5126832826  -0.7890867716  -0.8183374135
	    C    -0.9249660493  -0.5963755489  -0.3048746059
	    O    -1.6779390490  -1.3022880748  -0.9058312622
	    C     0.7591300531   2.0126610019  -0.8363446487
	    C     1.9155374845  -1.1058432074   1.0261963350
	    H     1.1050959766  -1.4382784942   1.6612381235
	    H     2.3594782919  -1.9503959484   0.5238241129
	    H     2.6669008247  -0.5935515559   1.6093509335
	    C    -2.2195731450   0.7092043304   1.1116056975
	    H    -3.0304433280   0.0773188485   0.7525036624
	    H    -2.2092825467   0.6723498399   2.1995793793
	    H    -2.4390732754   1.7381616427   0.8229343380
	    C     1.2526412260   1.0534457862   0.1880931928
	    H     0.2746153252   1.5185629168  -1.6608186392
	    H     0.0799394403   2.7179292153  -0.3782317226
	    H     1.6229092989   2.5654540899  -1.2007125205
	    H     1.7384207919   1.4491902990   1.0604417951
			--------------------------
			 OPTKING Finished Execution 
			--------------------------

    Structure for next step:
    Molecular point group: c1
    Full point group: C1

    Geometry (in Angstrom), charge = 0, multiplicity = 1:

    N           -0.923365345637     0.310683312288     0.593463114340
    N            1.398966342608    -0.204602147918     0.005284438610
    O            0.516597590096    -0.786351550213    -0.822793012412
    C           -0.921051741848    -0.593640327515    -0.309330204873
    O           -1.674024741542    -1.299552853404    -0.910286861127
    C            0.763044360566     2.015396223307    -0.840800247643
    C            1.919451791987    -1.103107986000     1.021740736072
    H            1.109010284144    -1.435543272748     1.656782524533
    H            2.363392599367    -1.947660726954     0.519368513934
    H            2.670815132156    -0.590816334525     1.604895334558
    C           -2.215658837539     0.711939551833     1.107150098561
    H           -3.026529020522     0.080054069909     0.748048063503
    H           -2.205368239153     0.675085061352     2.195123780373
    H           -2.435158967927     1.740896864138     0.818478739063
    C            1.256555533542     1.056181007666     0.183637593845
    H            0.278529632673     1.521298138205    -1.665274238114
    H            0.083853747789     2.720664436716    -0.382687321514
    H            1.626823606379     2.568189311368    -1.205168119418
    H            1.742335099385     1.451925520458     1.055986196169

gradient() will perform analytic gradient computation.

*** tstart() called on localhost.localdomain
*** at Tue Jan 15 16:33:31 2019

   => Loading Basis Set <=

    Name: 6-31+G(D)
    Role: ORBITAL
    Keyword: BASIS
    atoms 1-2                entry N          line   138 file /root/psi4conda/share/psi4/basis/6-31pg_d_.gbs 
    atoms 3, 5               entry O          line   157 file /root/psi4conda/share/psi4/basis/6-31pg_d_.gbs 
    atoms 4, 6-7, 11, 15     entry C          line   119 file /root/psi4conda/share/psi4/basis/6-31pg_d_.gbs 
    atoms 8-10, 12-14, 16-19 entry H          line    46 file /root/psi4conda/share/psi4/basis/6-31pg_d_.gbs 


         ---------------------------------------------------------
                                   SCF
            by Justin Turney, Rob Parrish, Andy Simmonett
                             and Daniel Smith
                              RHF Reference
                        1 Threads,    500 MiB Core
         ---------------------------------------------------------

  ==> Geometry <==

    Molecular point group: c1
    Full point group: C1

    Geometry (in Angstrom), charge = 0, multiplicity = 1:

       Center              X                  Y                   Z               Mass       
    ------------   -----------------  -----------------  -----------------  -----------------
         N           -0.923365345637     0.310683312288     0.593463114340    14.003074004780
         N            1.398966342608    -0.204602147918     0.005284438610    14.003074004780
         O            0.516597590096    -0.786351550213    -0.822793012412    15.994914619560
         C           -0.921051741848    -0.593640327515    -0.309330204873    12.000000000000
         O           -1.674024741542    -1.299552853404    -0.910286861127    15.994914619560
         C            0.763044360566     2.015396223307    -0.840800247643    12.000000000000
         C            1.919451791987    -1.103107986000     1.021740736072    12.000000000000
         H            1.109010284144    -1.435543272748     1.656782524533     1.007825032070
         H            2.363392599367    -1.947660726954     0.519368513934     1.007825032070
         H            2.670815132156    -0.590816334525     1.604895334558     1.007825032070
         C           -2.215658837539     0.711939551833     1.107150098561    12.000000000000
         H           -3.026529020522     0.080054069909     0.748048063503     1.007825032070
         H           -2.205368239153     0.675085061352     2.195123780373     1.007825032070
         H           -2.435158967927     1.740896864138     0.818478739063     1.007825032070
         C            1.256555533542     1.056181007666     0.183637593845    12.000000000000
         H            0.278529632673     1.521298138205    -1.665274238114     1.007825032070
         H            0.083853747789     2.720664436716    -0.382687321514     1.007825032070
         H            1.626823606379     2.568189311368    -1.205168119418     1.007825032070
         H            1.742335099385     1.451925520458     1.055986196169     1.007825032070

  Running in c1 symmetry.

  Rotational constants: A =      0.07119  B =      0.04793  C =      0.03992 [cm^-1]
  Rotational constants: A =   2134.11656  B =   1436.79110  C =   1196.77615 [MHz]
  Nuclear repulsion =  490.735579358894199

  Charge       = 0
  Multiplicity = 1
  Electrons    = 70
  Nalpha       = 35
  Nbeta        = 35

  ==> Algorithm <==

  SCF Algorithm Type is DF.
  DIIS enabled.
  MOM disabled.
  Fractional occupation disabled.
  Guess Type is READ.
  Energy threshold   = 1.00e-08
  Density threshold  = 1.00e-08
  Integral threshold = 0.00e+00

  ==> Primary Basis <==

  Basis Set: 6-31+G(D)
    Blend: 6-31+G(D)
    Number of shells: 92
    Number of basis function: 191
    Number of Cartesian functions: 191
    Spherical Harmonics?: false
    Max angular momentum: 2

   => Loading Basis Set <=

    Name: (6-31+G(D) AUX)
    Role: JKFIT
    Keyword: DF_BASIS_SCF
    atoms 1-2                entry N          line   252 file /root/psi4conda/share/psi4/basis/heavy-aug-cc-pvdz-jkfit.gbs 
    atoms 3, 5               entry O          line   310 file /root/psi4conda/share/psi4/basis/heavy-aug-cc-pvdz-jkfit.gbs 
    atoms 4, 6-7, 11, 15     entry C          line   194 file /root/psi4conda/share/psi4/basis/heavy-aug-cc-pvdz-jkfit.gbs 
    atoms 8-10, 12-14, 16-19 entry H          line   116 file /root/psi4conda/share/psi4/basis/heavy-aug-cc-pvdz-jkfit.gbs 

  Reading orbitals from file 180, no projection.

  ==> Pre-Iterations <==

   -------------------------------------------------------
    Irrep   Nso     Nmo     Nalpha   Nbeta   Ndocc  Nsocc
   -------------------------------------------------------
     A        191     191       0       0       0       0
   -------------------------------------------------------
    Total     191     191      35      35      35       0
   -------------------------------------------------------

  ==> Integral Setup <==

  ==> DiskDFJK: Density-Fitted J/K Matrices <==

    J tasked:                  Yes
    K tasked:                  Yes
    wK tasked:                  No
    OpenMP threads:              1
    Integrals threads:           1
    Memory (MB):               375
    Algorithm:                Core
    Integral Cache:           NONE
    Schwarz Cutoff:          1E-12
    Fitting Condition:       1E-12

   => Auxiliary Basis Set <=

  Basis Set: (6-31+G(D) AUX)
    Blend: HEAVY-AUG-CC-PVDZ-JKFIT
    Number of shells: 342
    Number of basis function: 1159
    Number of Cartesian functions: 1159
    Spherical Harmonics?: false
    Max angular momentum: 3

  Minimum eigenvalue in the overlap matrix is 5.5688411442E-05.
  Using Symmetric Orthogonalization.

  SCF Guess: Orbitals guess was supplied from a previous computation.

  ==> Iterations <==

                           Total Energy        Delta E     RMS |[F,P]|

   @DF-RHF iter   0:  -453.72504350112740   -4.53725e+02   1.07360e-03 
   @DF-RHF iter   1:  -453.66697931206249    5.80642e-02   1.72776e-04 
   @DF-RHF iter   2:  -453.66770112530128   -7.21813e-04   8.75751e-05 DIIS
   @DF-RHF iter   3:  -453.66784141019656   -1.40285e-04   3.33301e-05 DIIS
   @DF-RHF iter   4:  -453.66787599482905   -3.45846e-05   7.74794e-06 DIIS
   @DF-RHF iter   5:  -453.66787813906552   -2.14424e-06   3.26641e-06 DIIS
   @DF-RHF iter   6:  -453.66787868785576   -5.48790e-07   1.25348e-06 DIIS
   @DF-RHF iter   7:  -453.66787877528805   -8.74323e-08   4.80427e-07 DIIS
   @DF-RHF iter   8:  -453.66787878768099   -1.23929e-08   1.91511e-07 DIIS
   @DF-RHF iter   9:  -453.66787878926010   -1.57911e-09   7.07791e-08 DIIS
   @DF-RHF iter  10:  -453.66787878949731   -2.37208e-10   2.57920e-08 DIIS
   @DF-RHF iter  11:  -453.66787878953528   -3.79714e-11   9.48843e-09 DIIS

  ==> Post-Iterations <==

    Orbital Energies [Eh]
    ---------------------

    Doubly Occupied:                                                      

       1A    -20.619739     2A    -20.502731     3A    -15.711546  
       4A    -15.509693     5A    -11.381221     6A    -11.356352  
       7A    -11.296125     8A    -11.266333     9A    -11.226354  
      10A     -1.500439    11A     -1.365378    12A     -1.229810  
      13A     -1.182285    14A     -1.083328    15A     -0.988764  
      16A     -0.926496    17A     -0.853872    18A     -0.765590  
      19A     -0.741329    20A     -0.707184    21A     -0.667587  
      22A     -0.633035    23A     -0.624939    24A     -0.611040  
      25A     -0.598433    26A     -0.594956    27A     -0.585911  
      28A     -0.574584    29A     -0.545226    30A     -0.531823  
      31A     -0.487689    32A     -0.466829    33A     -0.436395  
      34A     -0.371617    35A     -0.333358  

    Virtual:                                                              

      36A      0.046183    37A      0.068687    38A      0.070710  
      39A      0.079143    40A      0.090480    41A      0.102410  
      42A      0.110891    43A      0.113781    44A      0.116802  
      45A      0.127346    46A      0.137311    47A      0.144476  
      48A      0.157488    49A      0.161523    50A      0.171387  
      51A      0.179233    52A      0.186251    53A      0.194183  
      54A      0.209242    55A      0.218697    56A      0.236362  
      57A      0.253321    58A      0.269752    59A      0.288363  
      60A      0.300493    61A      0.314706    62A      0.321737  
      63A      0.330637    64A      0.343236    65A      0.356631  
      66A      0.361832    67A      0.366339    68A      0.377089  
      69A      0.380464    70A      0.393697    71A      0.395049  
      72A      0.406597    73A      0.409606    74A      0.416340  
      75A      0.427058    76A      0.444860    77A      0.448396  
      78A      0.457006    79A      0.469319    80A      0.475527  
      81A      0.485757    82A      0.494681    83A      0.511472  
      84A      0.529931    85A      0.550521    86A      0.562731  
      87A      0.590258    88A      0.593439    89A      0.609809  
      90A      0.687274    91A      0.832501    92A      0.849758  
      93A      0.867265    94A      0.900316    95A      0.912988  
      96A      0.944284    97A      0.946506    98A      0.962655  
      99A      0.980739   100A      0.993954   101A      1.011266  
     102A      1.017633   103A      1.035566   104A      1.068437  
     105A      1.113605   106A      1.143543   107A      1.162128  
     108A      1.182426   109A      1.188355   110A      1.207387  
     111A      1.221734   112A      1.244352   113A      1.250210  
     114A      1.265272   115A      1.281635   116A      1.298195  
     117A      1.331125   118A      1.346166   119A      1.354837  
     120A      1.383152   121A      1.405908   122A      1.447068  
     123A      1.473396   124A      1.494173   125A      1.514694  
     126A      1.559548   127A      1.596397   128A      1.626491  
     129A      1.630746   130A      1.640222   131A      1.664630  
     132A      1.679910   133A      1.712406   134A      1.721425  
     135A      1.742132   136A      1.786749   137A      1.829461  
     138A      1.862889   139A      1.895641   140A      1.937366  
     141A      1.950451   142A      1.994822   143A      2.019023  
     144A      2.060000   145A      2.135485   146A      2.151231  
     147A      2.177160   148A      2.222997   149A      2.239561  
     150A      2.257214   151A      2.301242   152A      2.327403  
     153A      2.362922   154A      2.368525   155A      2.430838  
     156A      2.440628   157A      2.490203   158A      2.505840  
     159A      2.552446   160A      2.567501   161A      2.577993  
     162A      2.587647   163A      2.606626   164A      2.638781  
     165A      2.670757   166A      2.701950   167A      2.735135  
     168A      2.768231   169A      2.806119   170A      2.840980  
     171A      2.917185   172A      2.957253   173A      3.074368  
     174A      3.172540   175A      3.182747   176A      3.201545  
     177A      3.233632   178A      3.290573   179A      3.408600  
     180A      3.547413   181A      3.585360   182A      3.754248  
     183A      4.583538   184A      4.665093   185A      4.690538  
     186A      4.790921   187A      4.849438   188A      4.891933  
     189A      4.915491   190A      5.040331   191A      5.155418  

    Final Occupation by Irrep:
              A 
    DOCC [    35 ]

  Energy converged.

  @DF-RHF Final Energy:  -453.66787878953528

   => Energetics <=

    Nuclear Repulsion Energy =            490.7355793588941992
    One-Electron Energy =               -1592.2509354243954931
    Two-Electron Energy =                 647.8474772759659572
    Total Energy =                       -453.6678787895352798



Properties will be evaluated at   0.000000,   0.000000,   0.000000 [a0]

Properties computed using the SCF density matrix

  Nuclear Dipole Moment: [e a0]
     X:     2.0627      Y:     6.3495      Z:     5.0012

  Electronic Dipole Moment: [e a0]
     X:     0.4715      Y:    -4.5757      Z:    -3.7372

  Dipole Moment: [e a0]
     X:     2.5342      Y:     1.7738      Z:     1.2640     Total:     3.3416

  Dipole Moment: [D]
     X:     6.4414      Y:     4.5086      Z:     3.2128     Total:     8.4936


*** tstop() called on localhost.localdomain at Tue Jan 15 16:33:41 2019
Module time:
	user time   =       9.82 seconds =       0.16 minutes
	system time =       0.25 seconds =       0.00 minutes
	total time  =         10 seconds =       0.17 minutes
Total time:
	user time   =      31.86 seconds =       0.53 minutes
	system time =       0.84 seconds =       0.01 minutes
	total time  =         33 seconds =       0.55 minutes

*** tstart() called on localhost.localdomain
*** at Tue Jan 15 16:33:41 2019


         ------------------------------------------------------------
                                   SCF GRAD                          
                          Rob Parrish, Justin Turney,                
                       Andy Simmonett, and Alex Sokolov              
         ------------------------------------------------------------

  ==> Geometry <==

    Molecular point group: c1
    Full point group: C1

    Geometry (in Angstrom), charge = 0, multiplicity = 1:

       Center              X                  Y                   Z               Mass       
    ------------   -----------------  -----------------  -----------------  -----------------
         N           -0.923365345637     0.310683312288     0.593463114340    14.003074004780
         N            1.398966342608    -0.204602147918     0.005284438610    14.003074004780
         O            0.516597590096    -0.786351550213    -0.822793012412    15.994914619560
         C           -0.921051741848    -0.593640327515    -0.309330204873    12.000000000000
         O           -1.674024741542    -1.299552853404    -0.910286861127    15.994914619560
         C            0.763044360566     2.015396223307    -0.840800247643    12.000000000000
         C            1.919451791987    -1.103107986000     1.021740736072    12.000000000000
         H            1.109010284144    -1.435543272748     1.656782524533     1.007825032070
         H            2.363392599367    -1.947660726954     0.519368513934     1.007825032070
         H            2.670815132156    -0.590816334525     1.604895334558     1.007825032070
         C           -2.215658837539     0.711939551833     1.107150098561    12.000000000000
         H           -3.026529020522     0.080054069909     0.748048063503     1.007825032070
         H           -2.205368239153     0.675085061352     2.195123780373     1.007825032070
         H           -2.435158967927     1.740896864138     0.818478739063     1.007825032070
         C            1.256555533542     1.056181007666     0.183637593845    12.000000000000
         H            0.278529632673     1.521298138205    -1.665274238114     1.007825032070
         H            0.083853747789     2.720664436716    -0.382687321514     1.007825032070
         H            1.626823606379     2.568189311368    -1.205168119418     1.007825032070
         H            1.742335099385     1.451925520458     1.055986196169     1.007825032070

  Nuclear repulsion =  490.735579358894199

  ==> Basis Set <==

  Basis Set: 6-31+G(D)
    Blend: 6-31+G(D)
    Number of shells: 92
    Number of basis function: 191
    Number of Cartesian functions: 191
    Spherical Harmonics?: false
    Max angular momentum: 2

  ==> DFJKGrad: Density-Fitted SCF Gradients <==

    Gradient:                    1
    J tasked:                  Yes
    K tasked:                  Yes
    wK tasked:                  No
    OpenMP threads:              1
    Integrals threads:           1
    Memory (MB):               375
    Schwarz Cutoff:          0E+00
    Fitting Condition:       1E-12

   => Auxiliary Basis Set <=

  Basis Set: (6-31+G(D) AUX)
    Blend: HEAVY-AUG-CC-PVDZ-JKFIT
    Number of shells: 342
    Number of basis function: 1159
    Number of Cartesian functions: 1159
    Spherical Harmonics?: false
    Max angular momentum: 3


  -Total Gradient:
     Atom            X                  Y                   Z
    ------   -----------------  -----------------  -----------------
       1        0.008584967857     0.001396308108    -0.002541005606
       2        0.005428716524    -0.002100966838    -0.002551118888
       3        0.004631733040     0.002054272885    -0.002469586441
       4       -0.012006942572    -0.002149696747     0.005945855633
       5        0.002005201492     0.001226645334    -0.000548815431
       6       -0.001210217508    -0.002116972047     0.000430948220
       7       -0.001714162987     0.000521757038     0.000448898865
       8        0.000511281622    -0.000530430751     0.000765251224
       9       -0.000341671347     0.000513042624     0.000248734907
      10       -0.000245255970    -0.000349348031    -0.000186661941
      11        0.001049776905     0.000307653287    -0.002526514301
      12       -0.002341093601    -0.001362837289    -0.000601811384
      13        0.000910245835    -0.000400289882     0.001761617031
      14        0.000129096508     0.001645120402    -0.000493217433
      15       -0.003859574345     0.001752322537     0.003279765791
      16        0.000047645730     0.000531169571    -0.000324403072
      17       -0.000152598947     0.000476640614    -0.000522398231
      18       -0.000688213045    -0.000189875969     0.000151342486
      19       -0.000738935198    -0.001224514832    -0.000266881425


*** tstop() called on localhost.localdomain at Tue Jan 15 16:33:49 2019
Module time:
	user time   =       8.18 seconds =       0.14 minutes
	system time =       0.22 seconds =       0.00 minutes
	total time  =          8 seconds =       0.13 minutes
Total time:
	user time   =      40.04 seconds =       0.67 minutes
	system time =       1.06 seconds =       0.02 minutes
	total time  =         41 seconds =       0.68 minutes

			-----------------------------------------
			 OPTKING 2.0: for geometry optimizations 
			  - R.A. King,  Bethel University        
			-----------------------------------------

	Previous internal coordinate definitions found.
	---Fragment 1 Geometry and Gradient---
	 N          -1.7449076239        0.5871063743        1.1214827561
	 N           2.6436632567       -0.3866420258        0.0099861417
	 O           0.9762279662       -1.4859890741       -1.5548534575
	 C          -1.7405355463       -1.1218176404       -0.5845493718
	 O          -3.1634483012       -2.4557989881       -1.7201928699
	 C           1.4419448687        3.8085469113       -1.5888822005
	 C           3.6272382121       -2.0845719885        1.9308101700
	 H           2.0957257156       -2.7127836374        3.1308652331
	 H           4.4661647573       -3.6805453737        0.9814642534
	 H           5.0471091513       -1.1164810671        3.0328126543
	 C          -4.1869884069        1.3453707761        2.0922104743
	 H          -5.7193109820        0.1512802680        1.4136059743
	 H          -4.1675419942        1.2757258824        4.1481827727
	 H          -4.6017835394        3.2898182988        1.5467006624
	 C           2.3745458292        1.9958928512        0.3470247601
	 H           0.5263447256        2.8748368477       -3.1469122462
	 H           0.1584606185        5.1413106849       -0.7231742322
	 H           3.0742510826        4.8531744559       -2.2774376898
	 H           3.2925361696        2.7437415990        1.9955247109
	             0.0085849679        0.0013963081       -0.0025410056
	             0.0054287165       -0.0021009668       -0.0025511189
	             0.0046317330        0.0020542729       -0.0024695864
	            -0.0120069426       -0.0021496967        0.0059458556
	             0.0020052015        0.0012266453       -0.0005488154
	            -0.0012102175       -0.0021169720        0.0004309482
	            -0.0017141630        0.0005217570        0.0004488989
	             0.0005112816       -0.0005304308        0.0007652512
	            -0.0003416713        0.0005130426        0.0002487349
	            -0.0002452560       -0.0003493480       -0.0001866619
	             0.0010497769        0.0003076533       -0.0025265143
	            -0.0023410936       -0.0013628373       -0.0006018114
	             0.0009102458       -0.0004002899        0.0017616170
	             0.0001290965        0.0016451204       -0.0004932174
	            -0.0038595743        0.0017523225        0.0032797658
	             0.0000476457        0.0005311696       -0.0003244031
	            -0.0001525989        0.0004766406       -0.0005223982
	            -0.0006882130       -0.0001898760        0.0001513425
	            -0.0007389352       -0.0012245148       -0.0002668814

	---Fragment 1 Intrafragment Coordinates---
	 - Coordinate -           - BOHR/RAD -       - ANG/DEG -
	 R(1,4)           =         2.414743	       1.277827
	 R(1,11)          =         2.735148	       1.447378
	 R(2,3)           =         2.537248	       1.342654
	 R(2,7)           =         2.745897	       1.453066
	 R(2,15)          =         2.421258	       1.281275
	 R(3,4)           =         2.907734	       1.538706
	 R(4,5)           =         2.256961	       1.194332
	 R(6,15)          =         2.811262	       1.487656
	 R(6,16)          =         2.034108	       1.076404
	 R(6,17)          =         2.042802	       1.081004
	 R(6,18)          =         2.056643	       1.088328
	 R(7,8)           =         2.044581	       1.081946
	 R(7,9)           =         2.037691	       1.078300
	 R(7,10)          =         2.041481	       1.080305
	 R(11,12)         =         2.057758	       1.088919
	 R(11,13)         =         2.057243	       1.088646
	 R(11,14)         =         2.061677	       1.090992
	 R(15,19)         =         2.029664	       1.074052
	 B(1,4,3)         =         1.902956	     109.031373
	 B(1,4,5)         =         2.453792	     140.591917
	 B(1,11,12)       =         1.968122	     112.765057
	 B(1,11,13)       =         1.914381	     109.685947
	 B(1,11,14)       =         1.925374	     110.315814
	 B(2,3,4)         =         1.932586	     110.729024
	 B(2,7,8)         =         1.909499	     109.406215
	 B(2,7,9)         =         1.881656	     107.810944
	 B(2,7,10)        =         1.910820	     109.481916
	 B(2,15,6)        =         2.183995	     125.133693
	 B(2,15,19)       =         2.010150	     115.173100
	 B(3,2,7)         =         1.981124	     113.510056
	 B(3,2,15)        =         2.025460	     116.050321
	 B(3,4,5)         =         1.925291	     110.311038
	 B(4,1,11)        =         2.035948	     116.651236
	 B(6,15,19)       =         2.062091	     118.149131
	 B(7,2,15)        =         2.154240	     123.428878
	 B(8,7,9)         =         1.918982	     109.949541
	 B(8,7,10)        =         1.928204	     110.477965
	 B(9,7,10)        =         1.914058	     109.667473
	 B(12,11,13)      =         1.893328	     108.479722
	 B(12,11,14)      =         1.886214	     108.072113
	 B(13,11,14)      =         1.873668	     107.353248
	 B(15,6,16)       =         1.961463	     112.383532
	 B(15,6,17)       =         1.914811	     109.710595
	 B(15,6,18)       =         1.870002	     107.143202
	 B(16,6,17)       =         1.919060	     109.954018
	 B(16,6,18)       =         1.911305	     109.509737
	 B(17,6,18)       =         1.885108	     108.008719
	 D(1,4,3,2)       =         0.250264	      14.339063
	 D(2,3,4,5)       =        -2.931833	    -167.981640
	 D(2,15,6,16)     =         0.276731	      15.855508
	 D(2,15,6,17)     =         2.417475	     138.511103
	 D(2,15,6,18)     =        -1.823459	    -104.476482
	 D(3,2,7,8)       =        -1.095281	     -62.754962
	 D(3,2,7,9)       =         0.991204	      56.791778
	 D(3,2,7,10)      =         3.072516	     176.042203
	 D(3,2,15,6)      =        -0.576255	     -33.016995
	 D(3,2,15,19)     =         2.818476	     161.486807
	 D(3,4,1,11)      =         3.046657	     174.560564
	 D(4,1,11,12)     =         0.141565	       8.111065
	 D(4,1,11,13)     =         2.253629	     129.123449
	 D(4,1,11,14)     =        -1.969189	    -112.826235
	 D(4,3,2,7)       =         1.614527	      92.505602
	 D(4,3,2,15)      =        -1.034988	     -59.300440
	 D(5,4,1,11)      =        -0.035082	      -2.010047
	 D(6,15,2,7)      =         3.111154	     178.256004
	 D(7,2,15,19)     =         0.222701	      12.759806
	 D(8,7,2,15)      =         1.512757	      86.674595
	 D(9,7,2,15)      =        -2.683944	    -153.778664
	 D(10,7,2,15)     =        -0.602631	     -34.528239
	 D(16,6,15,19)    =        -3.124844	    -179.040388
	 D(17,6,15,19)    =        -0.984100	     -56.384792
	 D(18,6,15,19)    =         1.058152	      60.627623
	 R(1,6)           =         5.280131	       2.794125
	 R(1,7)           =         6.054158	       3.203722
	 R(1,15)          =         4.422031	       2.340038
	 R(4,6)           =         5.953601	       3.150510
	 R(6,11)          =         7.162581	       3.790275
	 R(11,15)         =         6.820747	       3.609384

	Current energy   :      -453.6678787895

	Energy change for the previous step:
		Projected    :        -0.0021372106
		Actual       :        -0.0022756316

	Performing Bofill update.
	Previous computed or guess Hessian on step 1.
	Steps to be used in Hessian update: 1
	Taking PRFO optimization step.
	Maximizing along 1 lowest eigenvalue of Hessian.

 RFO min eigenvalues
 -0.000822 -0.000000 -0.000000 -0.000000 -0.000000 -0.000000 -0.000000 -0.000000
 -0.000000 -0.000000 -0.000000 -0.000000 -0.000000 -0.000000 -0.000000 -0.000000
  0.000000  0.000000  0.000000  0.000000  0.000000  0.000000  0.000000  0.000000
  0.000000  0.000000  0.000000  0.000000  0.004714  0.005236  0.007516  0.013596
  0.015088  0.015946  0.020758  0.023134  0.031754  0.032567  0.067390  0.073178
  0.075284  0.076706  0.077105  0.097156  0.099202  0.153185  0.159684  0.159957
  0.159966  0.159967  0.159977  0.159990  0.159995  0.160000  0.160329  0.164825
  0.201690  0.224603  0.237910  0.247100  0.250626  0.316729  0.337355  0.343533
  0.344009  0.344815  0.347153  0.347733  0.351103  0.352265  0.353435  0.354602
  0.356586  0.357842  0.539219  0.660086  0.705505  1.040946

 RFO max eigenvalues
 -0.007071  0.002416
	Change in coordinate exceeds step limit of    0.50000.
	Scaling displacements by    0.83166
	|RFO target step|  :        0.5000000000
	RFO gradient       :        0.0026506649
	RFO hessian        :       -0.0021709450
	Projected Delta(E) :        0.0008431715

	Back-transformation to cartesian coordinates...
	Could not converge backtransformation.
	Using first guess instead.

	--- Internal Coordinate Step in ANG or DEG, aJ/ANG or AJ/DEG ---
	 ---------------------------------------------------------------------------
	   Coordinate                Previous        Force       Change         New 
	   ----------                --------       ------       ------       ------
	    1 R(1,4)          =      1.277827     0.015878    -0.000907     1.276920
	    2 R(1,11)         =      1.447378    -0.015515     0.006610     1.453988
	    3 R(2,3)          =      1.342654    -0.005557     0.001770     1.344424
	    4 R(2,7)          =      1.453066    -0.002473     0.001224     1.454291
	    5 R(2,15)         =      1.281275    -0.010566     0.002732     1.284007
	    6 R(3,4)          =      1.538706    -0.058289     0.012262     1.550968
	    7 R(4,5)          =      1.194332     0.014113     0.015375     1.209708
	    8 R(6,15)         =      1.487656    -0.007367     0.001118     1.488774
	    9 R(6,16)         =      1.076404     0.000139     0.000059     1.076463
	   10 R(6,17)         =      1.081004    -0.001529     0.001205     1.082210
	   11 R(6,18)         =      1.088328     0.005712     0.000327     1.088655
	   12 R(7,8)          =      1.081946    -0.001888     0.001253     1.083199
	   13 R(7,9)          =      1.078300     0.005424     0.000023     1.078323
	   14 R(7,10)         =      1.080305     0.003601     0.000731     1.081036
	   15 R(11,12)        =      1.088919    -0.022514     0.022345     1.111264
	   16 R(11,13)        =      1.088646    -0.014687     0.011677     1.100324
	   17 R(11,14)        =      1.090992    -0.013644     0.019863     1.110856
	   18 R(15,19)        =      1.074052     0.008256    -0.000545     1.073507
	   19 B(1,4,3)        =    109.031373     0.000215    -0.474597   108.556776
	   20 B(1,4,5)        =    140.591917    -0.000220     0.176108   140.768025
	   21 B(1,11,12)      =    112.765057    -0.000093     0.847701   113.612758
	   22 B(1,11,13)      =    109.685947     0.000121    -1.161136   108.524810
	   23 B(1,11,14)      =    110.315814     0.000041    -0.590408   109.725406
	   24 B(2,3,4)        =    110.729024     0.000009     0.356797   111.085822
	   25 B(2,7,8)        =    109.406215    -0.000120     0.311429   109.717644
	   26 B(2,7,9)        =    107.810944     0.000030    -0.144684   107.666259
	   27 B(2,7,10)       =    109.481916     0.000003    -0.054244   109.427672
	   28 B(2,15,6)       =    125.133693     0.000134    -0.279444   124.854250
	   29 B(2,15,19)      =    115.173100    -0.000004    -0.275846   114.897254
	   30 B(3,2,7)        =    113.510056    -0.000053    -0.381261   113.128795
	   31 B(3,2,15)       =    116.050321     0.000119    -0.757023   115.293297
	   32 B(3,4,5)        =    110.311038     0.000013    -0.351797   109.959241
	   33 B(4,1,11)       =    116.651236     0.000197    -0.639919   116.011317
	   34 B(6,15,19)      =    118.149131    -0.000127     0.225412   118.374543
	   35 B(7,2,15)       =    123.428878    -0.000024    -0.507328   122.921550
	   36 B(8,7,9)        =    109.949541     0.000033    -0.107338   109.842203
	   37 B(8,7,10)       =    110.477965     0.000047    -0.062312   110.415652
	   38 B(9,7,10)       =    109.667473     0.000006     0.056325   109.723798
	   39 B(12,11,13)     =    108.479722    -0.000018     0.112646   108.592368
	   40 B(12,11,14)     =    108.072113    -0.000016    -0.002344   108.069769
	   41 B(13,11,14)     =    107.353248    -0.000037     0.827910   108.181158
	   42 B(15,6,16)      =    112.383532    -0.000052     0.006811   112.390343
	   43 B(15,6,17)      =    109.710595    -0.000066     0.240534   109.951129
	   44 B(15,6,18)      =    107.143202     0.000002     0.057176   107.200378
	   45 B(16,6,17)      =    109.954018     0.000046    -0.149859   109.804159
	   46 B(16,6,18)      =    109.509737     0.000034    -0.050810   109.458927
	   47 B(17,6,18)      =    108.008719     0.000037    -0.104587   107.904132
	   48 D(1,4,3,2)      =     14.339063    -0.000021    -7.315430     7.023632
	   49 D(2,3,4,5)      =   -167.981640     0.000011   -12.601967  -180.583607
	   50 D(2,15,6,16)    =     15.855508     0.000003     0.174670    16.030178
	   51 D(2,15,6,17)    =    138.511103    -0.000002     0.160203   138.671306
	   52 D(2,15,6,18)    =   -104.476482     0.000000     0.195789  -104.280693
	   53 D(3,2,7,8)      =    -62.754962    -0.000013    -2.086694   -64.841657
	   54 D(3,2,7,9)      =     56.791778    -0.000015    -2.124071    54.667707
	   55 D(3,2,7,10)     =    176.042203    -0.000009    -2.171469   173.870734
	   56 D(3,2,15,6)     =    -33.016995     0.000016    -2.803058   -35.820054
	   57 D(3,2,15,19)    =    161.486807     0.000018    -1.395530   160.091277
	   58 D(3,4,1,11)     =    174.560564     0.000033    -5.931612   168.628953
	   59 D(4,1,11,12)    =      8.111065    -0.000002    -3.478509     4.632556
	   60 D(4,1,11,13)    =    129.123449    -0.000002    -3.596173   125.527276
	   61 D(4,1,11,14)    =   -112.826235     0.000010    -3.629783  -116.456019
	   62 D(4,3,2,7)      =     92.505602     0.000023     2.019276    94.524879
	   63 D(4,3,2,15)     =    -59.300440     0.000008     5.010479   -54.289961
	   64 D(5,4,1,11)     =     -2.010047    -0.000019     1.985360    -0.024687
	   65 D(6,15,2,7)     =    178.256004    -0.000001     0.484942   178.740947
	   66 D(7,2,15,19)    =     12.759806     0.000002     1.892471    14.652277
	   67 D(8,7,2,15)     =     86.674595     0.000015    -5.415007    81.259589
	   68 D(9,7,2,15)     =   -153.778664     0.000012    -5.452384  -159.231047
	   69 D(10,7,2,15)    =    -34.528239     0.000018    -5.499782   -40.028020
	   70 D(16,6,15,19)   =   -179.040388     0.000004    -1.346419  -180.386806
	   71 D(17,6,15,19)   =    -56.384792    -0.000001    -1.360887   -57.745679
	   72 D(18,6,15,19)   =     60.627623     0.000001    -1.325300    59.302323
	   73 R(1,6)          =      2.794125     0.008487    -0.002682     2.791443
	   74 R(1,7)          =      3.203722     0.001739    -0.036813     3.166910
	   75 R(1,15)         =      2.340038     0.017382    -0.035720     2.304318
	   76 R(4,6)          =      3.150510    -0.001013    -0.063350     3.087160
	   77 R(6,11)         =      3.790275     0.009946    -0.128408     3.661867
	   78 R(11,15)        =      3.609384     0.011721    -0.087823     3.521560
	 ---------------------------------------------------------------------------
	Successfully symmetrized geometry.

  ==> Convergence Check <==

  Measures of convergence in internal coordinates in au.
  Criteria marked as inactive (o), active & met (*), and active & unmet ( ).
  ---------------------------------------------------------------------------------------------
   Step     Total Energy     Delta E     MAX Force     RMS Force      MAX Disp      RMS Disp   
  ---------------------------------------------------------------------------------------------
    Convergence Criteria    1.00e-06 *    3.00e-04 *             o    1.20e-03 *             o
  ---------------------------------------------------------------------------------------------
      2    -453.66787879   -2.28e-03      7.07e-03      1.36e-03 o    2.43e-01      5.68e-02 o  ~
  ---------------------------------------------------------------------------------------------

	Writing optimization data to binary file.
	Structure for next step:
	Cartesian Geometry (in Angstrom)
	    N    -0.8890310579   0.2207999733   0.6712079222
	    N     1.4236942134  -0.2205471671   0.0080327831
	    O     0.5371964112  -0.8389265474  -0.7914692426
	    C    -0.9142314417  -0.6175834863  -0.2916022495
	    O    -1.6947030173  -1.1721695419  -1.0309877244
	    C     0.6825955155   1.9679738154  -0.8352873668
	    C     1.9699192468  -1.0915232077   1.0366240022
	    H     1.1819616822  -1.3942060673   1.7154659340
	    H     2.3832528758  -1.9582097043   0.5459206071
	    H     2.7498280875  -0.5693431805   1.5730086059
	    C    -2.1777878727   0.7434399271   1.0955135694
	    H    -3.0408454687   0.2783244279   0.5723437517
	    H    -2.2871605895   0.5688079365   2.1763711453
	    H    -2.2156435640   1.8390145892   0.9158384222
	    C     1.2140643690   1.0325414356   0.1937680903
	    H     0.2323374406   1.4514522067  -1.6654957644
	    H    -0.0379187961   2.6395485647  -0.3869303492
	    H     1.5205039733   2.5650964245  -1.1909890633
	    H     1.6901868192   1.4465478995   1.0622860554
			--------------------------
			 OPTKING Finished Execution 
			--------------------------

    Structure for next step:
    Molecular point group: c1
    Full point group: C1

    Geometry (in Angstrom), charge = 0, multiplicity = 1:

    N           -0.892574879511     0.227141125826     0.670369644863
    N            1.420150391753    -0.214206014560     0.007194505776
    O            0.533652589523    -0.832585394900    -0.792307519974
    C           -0.917775263355    -0.611242333821    -0.292440526807
    O           -1.698246838908    -1.165828389401    -1.031826001753
    C            0.679051693909     1.974314967963    -0.836125644078
    C            1.966375425122    -1.085182055143     1.035785724858
    H            1.178417860604    -1.387864914781     1.714627656635
    H            2.379709054160    -1.951868551814     0.545082329729
    H            2.746284265876    -0.563002027993     1.572170328622
    C           -2.181331694330     0.749781079627     1.094675292043
    H           -3.044389290377     0.284665580441     0.571505474361
    H           -2.290704411140     0.575149089065     2.175532867954
    H           -2.219187385671     1.845355741694     0.915000144911
    C            1.210520547318     1.038882588089     0.192929812936
    H            0.228793618993     1.457793359250    -1.666334041706
    H           -0.041462617741     2.645889717266    -0.387768626544
    H            1.516960151699     2.571437576985    -1.191827340624
    H            1.686642997559     1.452889051998     1.061447778108

gradient() will perform analytic gradient computation.

*** tstart() called on localhost.localdomain
*** at Tue Jan 15 16:33:49 2019

   => Loading Basis Set <=

    Name: 6-31+G(D)
    Role: ORBITAL
    Keyword: BASIS
    atoms 1-2                entry N          line   138 file /root/psi4conda/share/psi4/basis/6-31pg_d_.gbs 
    atoms 3, 5               entry O          line   157 file /root/psi4conda/share/psi4/basis/6-31pg_d_.gbs 
    atoms 4, 6-7, 11, 15     entry C          line   119 file /root/psi4conda/share/psi4/basis/6-31pg_d_.gbs 
    atoms 8-10, 12-14, 16-19 entry H          line    46 file /root/psi4conda/share/psi4/basis/6-31pg_d_.gbs 


         ---------------------------------------------------------
                                   SCF
            by Justin Turney, Rob Parrish, Andy Simmonett
                             and Daniel Smith
                              RHF Reference
                        1 Threads,    500 MiB Core
         ---------------------------------------------------------

  ==> Geometry <==

    Molecular point group: c1
    Full point group: C1

    Geometry (in Angstrom), charge = 0, multiplicity = 1:

       Center              X                  Y                   Z               Mass       
    ------------   -----------------  -----------------  -----------------  -----------------
         N           -0.892574879511     0.227141125826     0.670369644863    14.003074004780
         N            1.420150391753    -0.214206014560     0.007194505776    14.003074004780
         O            0.533652589523    -0.832585394900    -0.792307519974    15.994914619560
         C           -0.917775263355    -0.611242333821    -0.292440526807    12.000000000000
         O           -1.698246838908    -1.165828389401    -1.031826001753    15.994914619560
         C            0.679051693909     1.974314967963    -0.836125644078    12.000000000000
         C            1.966375425122    -1.085182055143     1.035785724858    12.000000000000
         H            1.178417860604    -1.387864914781     1.714627656635     1.007825032070
         H            2.379709054160    -1.951868551814     0.545082329729     1.007825032070
         H            2.746284265876    -0.563002027993     1.572170328622     1.007825032070
         C           -2.181331694330     0.749781079627     1.094675292043    12.000000000000
         H           -3.044389290377     0.284665580441     0.571505474361     1.007825032070
         H           -2.290704411140     0.575149089065     2.175532867954     1.007825032070
         H           -2.219187385671     1.845355741694     0.915000144911     1.007825032070
         C            1.210520547318     1.038882588089     0.192929812936    12.000000000000
         H            0.228793618993     1.457793359250    -1.666334041706     1.007825032070
         H           -0.041462617741     2.645889717266    -0.387768626544     1.007825032070
         H            1.516960151699     2.571437576985    -1.191827340624     1.007825032070
         H            1.686642997559     1.452889051998     1.061447778108     1.007825032070

  Running in c1 symmetry.

  Rotational constants: A =      0.07186  B =      0.04770  C =      0.04067 [cm^-1]
  Rotational constants: A =   2154.15888  B =   1430.15402  C =   1219.15276 [MHz]
[...]
	             0.0000123771        0.0000081193       -0.0000177249
	            -0.0000336247        0.0000072245        0.0000105427
	             0.0000484231        0.0000126963       -0.0000186270
	            -0.0000025518        0.0000022206        0.0000012506
	            -0.0000058294        0.0000085818       -0.0000043949
	            -0.0000011174       -0.0000059163        0.0000057229
	            -0.0000025799        0.0000052022        0.0000037679

	---Fragment 1 Intrafragment Coordinates---
	 - Coordinate -           - BOHR/RAD -       - ANG/DEG -
	 R(1,4)           =         2.436835	       1.289517
	 R(1,11)          =         2.733767	       1.446647
	 R(2,3)           =         2.547856	       1.348267
	 R(2,7)           =         2.744868	       1.452522
	 R(2,15)          =         2.432589	       1.287271
	 R(3,4)           =         2.791928	       1.477425
	 R(4,5)           =         2.267385	       1.199848
	 R(6,15)          =         2.813396	       1.488785
	 R(6,16)          =         2.034813	       1.076777
	 R(6,17)          =         2.041709	       1.080426
	 R(6,18)          =         2.058333	       1.089223
	 R(7,8)           =         2.044578	       1.081944
	 R(7,9)           =         2.039425	       1.079217
	 R(7,10)          =         2.042436	       1.080811
	 R(11,12)         =         2.056414	       1.088207
	 R(11,13)         =         2.054627	       1.087262
	 R(11,14)         =         2.049226	       1.084404
	 R(15,19)         =         2.031972	       1.075273
	 B(1,4,3)         =         1.940270	     111.169304
	 B(1,4,5)         =         2.387847	     136.813576
	 B(1,11,12)       =         1.958570	     112.217792
	 B(1,11,13)       =         1.951859	     111.833298
	 B(1,11,14)       =         1.902769	     109.020638
	 B(2,3,4)         =         1.928428	     110.490765
	 B(2,7,8)         =         1.907967	     109.318451
	 B(2,7,9)         =         1.883510	     107.917174
	 B(2,7,10)        =         1.906898	     109.257206
	 B(2,15,6)        =         2.184492	     125.162187
	 B(2,15,19)       =         2.009685	     115.146486
	 B(3,2,7)         =         1.977413	     113.297434
	 B(3,2,15)        =         2.009198	     115.118554
	 B(3,4,5)         =         1.954690	     111.995498
	 B(4,1,11)        =         2.015330	     115.469924
	 B(6,15,19)       =         2.047975	     117.340302
	 B(7,2,15)        =         2.156653	     123.567143
	 B(8,7,9)         =         1.922095	     110.127934
	 B(8,7,10)        =         1.929506	     110.552553
	 B(9,7,10)        =         1.913202	     109.618421
	 B(12,11,13)      =         1.872899	     107.309230
	 B(12,11,14)      =         1.888838	     108.222464
	 B(13,11,14)      =         1.886558	     108.091791
	 B(15,6,16)       =         1.960477	     112.327068
	 B(15,6,17)       =         1.910273	     109.450594
	 B(15,6,18)       =         1.864731	     106.841225
	 B(16,6,17)       =         1.921506	     110.094175
	 B(16,6,18)       =         1.912966	     109.604851
	 B(17,6,18)       =         1.891942	     108.400315
	 D(1,4,3,2)       =         0.226941	      13.002787
	 D(2,3,4,5)       =        -2.939090	    -168.397473
	 D(2,15,6,16)     =         0.366423	      20.994519
	 D(2,15,6,17)     =         2.506374	     143.604659
	 D(2,15,6,18)     =        -1.731779	     -99.223601
	 D(3,2,7,8)       =        -1.072700	     -61.461187
	 D(3,2,7,9)       =         1.017748	      58.312677
	 D(3,2,7,10)      =         3.096895	     177.438985
	 D(3,2,15,6)      =        -0.664716	     -38.085444
	 D(3,2,15,19)     =         2.790302	     159.872507
	 D(3,4,1,11)      =         3.089514	     177.016105
	 D(4,1,11,12)     =        -1.083686	     -62.090608
	 D(4,1,11,13)     =         1.022146	      58.564657
	 D(4,1,11,14)     =         3.107295	     178.034908
	 D(4,3,2,7)       =         1.624883	      93.098951
	 D(4,3,2,15)      =        -0.994581	     -56.985268
	 D(5,4,1,11)      =        -0.018965	      -1.086618
	 D(6,15,2,7)      =         3.058926	     175.263559
	 D(7,2,15,19)     =         0.230759	      13.221510
	 D(8,7,2,15)      =         1.496153	      85.723227
	 D(9,7,2,15)      =        -2.696584	    -154.502909
	 D(10,7,2,15)     =        -0.617438	     -35.376601
	 D(16,6,15,19)    =        -3.094778	    -177.317714
	 D(17,6,15,19)    =        -0.954827	     -54.707574
	 D(18,6,15,19)    =         1.090205	      62.464166
	 R(1,6)           =         5.307570	       2.808645
	 R(1,7)           =         6.016361	       3.183721
	 R(1,15)          =         4.320413	       2.286264
	 R(4,6)           =         5.927019	       3.136443
	 R(6,11)          =         7.265393	       3.844680
	 R(11,15)         =         6.770909	       3.583011

	Current energy   :      -453.6690087269

	Energy change for the previous step:
		Projected    :        -0.0000005134
		Actual       :        -0.0000003440

	Performing Bofill update.
	Previous computed or guess Hessian on step 1.
	Steps to be used in Hessian update: 21 20
	Taking PRFO optimization step.
	Maximizing along 1 lowest eigenvalue of Hessian.

 RFO min eigenvalues
 -0.000371 -0.000000 -0.000000 -0.000000 -0.000000 -0.000000 -0.000000 -0.000000
 -0.000000 -0.000000 -0.000000 -0.000000 -0.000000 -0.000000 -0.000000  0.000000
  0.000000  0.000000  0.000000  0.000000  0.000000  0.000000  0.000000  0.000000
  0.000000  0.000000  0.000000  0.000000  0.000000  0.001083  0.005711  0.011916
  0.015037  0.017894  0.023740  0.027200  0.046642  0.057344  0.073214  0.075183
  0.076777  0.077151  0.093165  0.099555  0.102149  0.153405  0.159483  0.159719
  0.159964  0.160049  0.160385  0.161113  0.162046  0.164035  0.168576  0.169945
  0.203746  0.221926  0.225164  0.249126  0.268120  0.317970  0.339745  0.344058
  0.344581  0.346100  0.347907  0.351206  0.352355  0.353444  0.354714  0.356547
  0.359134  0.370111  0.545329  0.677204  0.712739  1.044078

 RFO max eigenvalues
 -0.015636  0.000000
	Change in coordinate exceeds step limit of    0.50000.
	Scaling displacements by    0.50002
	|RFO target step|  :        0.5000000000
	RFO gradient       :       -0.0000031086
	RFO hessian        :       -0.0003710479
	Projected Delta(E) :       -0.0000383482

	Back-transformation to cartesian coordinates...
	Could not converge backtransformation.
	Using first guess instead.

	--- Internal Coordinate Step in ANG or DEG, aJ/ANG or AJ/DEG ---
	 ---------------------------------------------------------------------------
	   Coordinate                Previous        Force       Change         New 
	   ----------                --------       ------       ------       ------
	    1 R(1,4)          =      1.289517    -0.000869     0.000360     1.289878
	    2 R(1,11)         =      1.446647    -0.000297     0.001799     1.448446
	    3 R(2,3)          =      1.348267     0.000170    -0.000939     1.347328
	    4 R(2,7)          =      1.452522     0.000031    -0.000659     1.451862
	    5 R(2,15)         =      1.287271    -0.000213    -0.000245     1.287026
	    6 R(3,4)          =      1.477425     0.000194     0.005628     1.483053
	    7 R(4,5)          =      1.199848     0.000000    -0.000635     1.199214
	    8 R(6,15)         =      1.488785    -0.000074     0.000516     1.489301
	    9 R(6,16)         =      1.076777     0.000009     0.000454     1.077231
	   10 R(6,17)         =      1.080426    -0.000067     0.000396     1.080822
	   11 R(6,18)         =      1.089223     0.000047     0.000346     1.089569
	   12 R(7,8)          =      1.081944    -0.000023     0.004391     1.086335
	   13 R(7,9)          =      1.079217    -0.000007     0.004315     1.083532
	   14 R(7,10)         =      1.080811     0.000030     0.004692     1.085503
	   15 R(11,12)        =      1.088207     0.000089     0.030538     1.118745
	   16 R(11,13)        =      1.087262     0.000157     0.030765     1.118027
	   17 R(11,14)        =      1.084404    -0.000102     0.028416     1.112820
	   18 R(15,19)        =      1.075273    -0.000037     0.000482     1.075755
	   19 B(1,4,3)        =    111.169304    -0.000006     0.297114   111.466418
	   20 B(1,4,5)        =    136.813576     0.000002    -0.070009   136.743567
	   21 B(1,11,12)      =    112.217792     0.000001    -0.346758   111.871034
	   22 B(1,11,13)      =    111.833298     0.000002    -0.885640   110.947658
	   23 B(1,11,14)      =    109.020638    -0.000005    -0.370187   108.650452
	   24 B(2,3,4)        =    110.490765     0.000005    -0.227226   110.263539
	   25 B(2,7,8)        =    109.318451    -0.000001     0.061837   109.380289
	   26 B(2,7,9)        =    107.917174    -0.000000    -0.389171   107.528003
	   27 B(2,7,10)       =    109.257206     0.000001    -0.105575   109.151631
	   28 B(2,15,6)       =    125.162187    -0.000002     0.057414   125.219601
	   29 B(2,15,19)      =    115.146486     0.000001    -0.110341   115.036145
	   30 B(3,2,7)        =    113.297434     0.000002     0.015641   113.313075
	   31 B(3,2,15)       =    115.118554    -0.000002    -0.151180   114.967374
	   32 B(3,4,5)        =    111.995498     0.000004    -0.230483   111.765016
	   33 B(4,1,11)       =    115.469924    -0.000007     0.102548   115.572473
	   34 B(6,15,19)      =    117.340302     0.000001     0.029095   117.369397
	   35 B(7,2,15)       =    123.567143    -0.000000    -0.390489   123.176655
	   36 B(8,7,9)        =    110.127934     0.000000     0.060570   110.188504
	   37 B(8,7,10)       =    110.552553    -0.000000     0.304089   110.856642
	   38 B(9,7,10)       =    109.618421    -0.000000     0.047702   109.666123
	   39 B(12,11,13)     =    107.309230     0.000000     0.445510   107.754740
	   40 B(12,11,14)     =    108.222464     0.000001     0.831382   109.053846
	   41 B(13,11,14)     =    108.091791     0.000000     0.400520   108.492310
	   42 B(15,6,16)      =    112.327068    -0.000000    -0.120354   112.206714
	   43 B(15,6,17)      =    109.450594    -0.000001     0.085818   109.536412
	   44 B(15,6,18)      =    106.841225     0.000001    -0.030690   106.810535
	   45 B(16,6,17)      =    110.094175     0.000000     0.023162   110.117338
	   46 B(16,6,18)      =    109.604851    -0.000000     0.047092   109.651943
	   47 B(17,6,18)      =    108.400315     0.000000    -0.003079   108.397237
	   48 D(1,4,3,2)      =     13.002787    -0.000000     1.091653    14.094440
	   49 D(2,3,4,5)      =   -168.397473     0.000000     0.984962  -167.412510
	   50 D(2,15,6,16)    =     20.994519     0.000000     1.366986    22.361506
	   51 D(2,15,6,17)    =    143.604659     0.000000     1.375629   144.980288
	   52 D(2,15,6,18)    =    -99.223601     0.000000     1.399786   -97.823814
	   53 D(3,2,7,8)      =    -61.461187     0.000000    -5.407270   -66.868456
	   54 D(3,2,7,9)      =     58.312677     0.000000    -5.527610    52.785067
	   55 D(3,2,7,10)     =    177.438985     0.000000    -5.753462   171.685523
	   56 D(3,2,15,6)     =    -38.085444    -0.000000    -0.798126   -38.883570
	   57 D(3,2,15,19)    =    159.872507    -0.000000    -0.711908   159.160599
	   58 D(3,4,1,11)     =    177.016105     0.000000     0.378191   177.394297
	   59 D(4,1,11,12)    =    -62.090608    -0.000000    13.803676   -48.286932
	   60 D(4,1,11,13)    =     58.564657     0.000000    13.513934    72.078591
	   61 D(4,1,11,14)    =    178.034908     0.000000    13.230209   191.265117
	   62 D(4,3,2,7)      =     93.098951    -0.000000    -1.165940    91.933011
	   63 D(4,3,2,15)     =    -56.985268    -0.000000    -0.168719   -57.153987
	   64 D(5,4,1,11)     =     -1.086618    -0.000000     0.523422    -0.563196
	   65 D(6,15,2,7)     =    175.263559    -0.000000     0.163510   175.427069
	   66 D(7,2,15,19)    =     13.221510    -0.000000     0.249728    13.471238
	   67 D(8,7,2,15)     =     85.723227    -0.000000    -6.401080    79.322147
	   68 D(9,7,2,15)     =   -154.502909    -0.000000    -6.521421  -161.024330
	   69 D(10,7,2,15)    =    -35.376601    -0.000000    -6.747273   -42.123874
	   70 D(16,6,15,19)   =   -177.317714    -0.000000     1.256736  -176.060977
	   71 D(17,6,15,19)   =    -54.707574    -0.000000     1.265379   -53.442195
	   72 D(18,6,15,19)   =     62.464166    -0.000000     1.289537    63.753703
	   73 R(1,6)          =      2.808645    -0.000112     0.005418     2.814064
	   74 R(1,7)          =      3.183721    -0.000062    -0.002580     3.181141
	   75 R(1,15)         =      2.286264     0.000078    -0.000502     2.285762
	   76 R(4,6)          =      3.136443     0.000070     0.010933     3.147376
	   77 R(6,11)         =      3.844680    -0.000089     0.020352     3.865033
	   78 R(11,15)        =      3.583011    -0.000116     0.006658     3.589668
	 ---------------------------------------------------------------------------
	Successfully symmetrized geometry.

  ==> Convergence Check <==

  Measures of convergence in internal coordinates in au.
  Criteria marked as inactive (o), active & met (*), and active & unmet ( ).
  ---------------------------------------------------------------------------------------------
   Step     Total Energy     Delta E     MAX Force     RMS Force      MAX Disp      RMS Disp   
  ---------------------------------------------------------------------------------------------
    Convergence Criteria    1.00e-06 *    3.00e-04 *             o    1.20e-03 *             o
  ---------------------------------------------------------------------------------------------
     22    -453.66900873   -3.44e-07 *    1.06e-04 *    2.44e-05 o    2.41e-01      5.69e-02 o  ~
  ---------------------------------------------------------------------------------------------


  **** Optimization is complete! (in 22 steps) ****

  ==> Optimization Summary <==

  Measures of convergence in internal coordinates in au.
  --------------------------------------------------------------------------------------------------------------- ~
   Step         Total Energy             Delta E       MAX Force       RMS Force        MAX Disp        RMS Disp  ~
  --------------------------------------------------------------------------------------------------------------- ~
      1    -453.665603157910   -453.665603157910      0.01751797      0.00428083      0.09896062      0.02639266  ~
      2    -453.667878789535     -0.002275631626      0.00707498      0.00136151      0.24265579      0.05677343  ~
      3    -453.663439262147      0.004439527388      0.02684358      0.00514710      0.13811763      0.03142655  ~
      4    -453.667140188278     -0.003700926131      0.01427340      0.00217521      0.19085020      0.05691437  ~
      5    -453.667871982452     -0.000731794173      0.01243117      0.00279847      0.22281011      0.05620616  ~
      6    -453.666083330036      0.001788652415      0.01786339      0.00350219      0.09920561      0.03343382  ~
      7    -453.667810137830     -0.001726807794      0.00568423      0.00124392      0.22826543      0.05667725  ~
      8    -453.668042858005     -0.000232720175      0.00736888      0.00176030      0.21255126      0.04692004  ~
      9    -453.667478771007      0.000564086998      0.01314111      0.00288253      0.19622524      0.05658637  ~
     10    -453.668457880889     -0.000979109883      0.00724016      0.00159287      0.27378003      0.05696356  ~
     11    -453.666258209784      0.002199671105      0.02421100      0.00476986      0.06715509      0.01984886  ~
     12    -453.668868925617     -0.002610715833      0.00307952      0.00065727      0.09445931      0.02007204  ~
     13    -453.668959563616     -0.000090637998      0.00246852      0.00057447      0.21983681      0.04683448  ~
     14    -453.667771994703      0.001187568913      0.01668163      0.00321928      0.04797993      0.01305695  ~
     15    -453.668943948306     -0.001171953603      0.00253958      0.00048411      0.11054270      0.02215562  ~
     16    -453.668944575264     -0.000000626958      0.00377803      0.00076214      0.02319451      0.00579482  ~
     17    -453.669006336690     -0.000061761425      0.00030166      0.00008059      0.00601546      0.00157923  ~
     18    -453.669008086053     -0.000001749363      0.00014457      0.00004547      0.06225537      0.01254968  ~
     19    -453.668995889188      0.000012196865      0.00084939      0.00024711      0.04645334      0.00936594  ~
     20    -453.669007055552     -0.000011166365      0.00060065      0.00012284      0.00999411      0.00231778  ~
     21    -453.669008382851     -0.000001327298      0.00021776      0.00005424      0.00378057      0.00100058  ~
     22    -453.669008726878     -0.000000344027      0.00010553      0.00002444      0.24091959      0.05688283  ~
  --------------------------------------------------------------------------------------------------------------- ~

	Writing optimization data to binary file.
	Final energy is   -453.6690087268777
	Final (previous) structure:
	Cartesian Geometry (in Angstrom)
	    N    -0.9587201929   0.2855618464   0.5335426543
	    N     1.4007555669  -0.0964025388   0.0851185081
	    O     0.5983075856  -0.7958893207  -0.7422990526
	    C    -0.8136786730  -0.6624971788  -0.3284330268
	    O    -1.5248801688  -1.4421855876  -0.8993225401
	    C     0.6793962636   2.0270321620  -0.9403445768
	    C     1.9280904875  -0.8904774371   1.1811028809
	    H     1.1082613558  -1.2555399892   1.7854308647
	    H     2.4750201062  -1.7189285809   0.7577279817
	    H     2.5947583040  -0.2808510247   1.7744506068
	    C    -2.3192114498   0.5421549394   0.9530805005
	    H    -2.9520070730   0.8586963513   0.1262995581
	    H    -2.7794243905  -0.3388115716   1.3938069412
	    H    -2.3165640249   1.3294454475   1.6988004734
	    C     1.1254876568   1.1573064646   0.1826247295
	    H     0.2637942625   1.4605326228  -1.7563110443
	    H    -0.0457187395   2.7406282644  -0.5766013543
	    H     1.5567754558   2.5732801600  -1.2841844897
	    H     1.5135889396   1.6434577906   1.0596918422
	Saving final (previous) structure.
	Removing binary optimization data file.
			--------------------------
			 OPTKING Finished Execution 
			--------------------------

    Final optimized geometry and variables:
    Molecular point group: c1
    Full point group: C1

    Geometry (in Angstrom), charge = 0, multiplicity = 1:

    N           -0.958720192911     0.285561846421     0.533542654349
    N            1.400755566938    -0.096402538825     0.085118508082
    O            0.598307585570    -0.795889320739    -0.742299052612
    C           -0.813678672979    -0.662497178835    -0.328433026800
    O           -1.524880168756    -1.442185587598    -0.899322540147
    C            0.679396263635     2.027032162012    -0.940344576803
    C            1.928090487473    -0.890477437100     1.181102880859
    H            1.108261355750    -1.255539989215     1.785430864670
    H            2.475020106213    -1.718928580910     0.757727981717
    H            2.594758303976    -0.280851024736     1.774450606766
    C           -2.319211449813     0.542154939413     0.953080500490
    H           -2.952007073023     0.858696351279     0.126299558146
    H           -2.779424390520    -0.338811571616     1.393806941250
    H           -2.316564024880     1.329445447456     1.698800473384
    C            1.125487656808     1.157306464636     0.182624729451
    H            0.263794262452     1.460532622837    -1.756311044289
    H           -0.045718739453     2.740628264370    -0.576601354339
    H            1.556775455753     2.573280160015    -1.284184489655
    H            1.513588939583     1.643457790585     1.059691842172

	Removing binary optimization data file.
	Cleaning optimization helper files.

    Psi4 stopped on: Tuesday, 15 January 2019 04:39PM
    Psi4 wall time for execution: 0:06:48.09

*** Psi4 exiting successfully. Buy a developer a beer!
