
    -----------------------------------------------------------------------
          Psi4: An Open-Source Ab Initio Electronic Structure Package
                               Psi4 1.2.1 release

                         Git: Rev {HEAD} 406f4de 


    R. M. Parrish, L. A. Burns, D. G. A. Smith, A. C. Simmonett,
    A. E. DePrince III, E. G. Hohenstein, U. Bozkaya, A. Yu. Sokolov,
    R. Di Remigio, R. M. Richard, J. F. Gonthier, A. M. James,
    H. R. McAlexander, A. Kumar, M. Saitow, X. Wang, B. P. Pritchard,
    P. Verma, H. F. Schaefer III, K. Patkowski, R. A. King, E. F. Valeev,
    F. A. Evangelista, J. M. Turney, T. D. Crawford, and C. D. Sherrill,
    J. Chem. Theory Comput. 13(7) pp 3185--3197 (2017).
    (doi: 10.1021/acs.jctc.7b00174)


                         Additional Contributions by
    P. Kraus, H. Kruse, M. H. Lechner, M. C. Schieber, and R. A. Shaw

    -----------------------------------------------------------------------


    Psi4 started on: Tuesday, 12 February 2019 02:35PM

    Process ID: 2609
    Host:       localhost.localdomain
    PSIDATADIR: /root/psi4conda/share/psi4
    Memory:     500.0 MiB
    Threads:    1
    
  ==> Input File <==

--------------------------------------------------------------------------
molecule{
0 1
C       -2.0307200       -0.2303590        0.1746990 
O       -2.3030580       -0.1856810        1.3393470 
O       -2.6141200       -0.0215870       -0.9448480 
N       -0.6090370       -0.5238310       -0.3625610 
H       -1.3834650       -0.2220590       -1.3319790 
H       -0.3490160       -1.5078760       -0.2890060 
C        0.4214750        0.3229120        0.2394680 
H        0.2359570        0.3519040        1.3207500 
C        1.7616160       -0.3526640        0.0379120 
O        1.8959420       -1.4976830       -0.3163680 
O        2.7853150        0.4559570        0.3347540 
H        3.5989270       -0.0621710        0.2181550 
C        0.3554060        1.7355250       -0.3308570 
H       -0.6408040        2.1484850       -0.1676750 
H        1.0844780        2.3767810        0.1597960 
H        0.5578830        1.7212190       -1.4025280
}

set{
   basis 6-31+G*
   freeze_core True
   opt_type ts
}


set_num_threads(16)
optimize('b3lyp')
--------------------------------------------------------------------------
  Threads set to 16 by Python driver.
gradient() will perform analytic gradient computation.

*** tstart() called on localhost.localdomain
*** at Tue Feb 12 14:35:09 2019

   => Loading Basis Set <=

    Name: 6-31+G*
    Role: ORBITAL
    Keyword: BASIS
    atoms 1, 7, 9, 13       entry C          line   119 file /root/psi4conda/share/psi4/basis/6-31pgs.gbs 
    atoms 2-3, 10-11        entry O          line   157 file /root/psi4conda/share/psi4/basis/6-31pgs.gbs 
    atoms 4                 entry N          line   138 file /root/psi4conda/share/psi4/basis/6-31pgs.gbs 
    atoms 5-6, 8, 12, 14-16 entry H          line    46 file /root/psi4conda/share/psi4/basis/6-31pgs.gbs 


         ---------------------------------------------------------
                                   SCF
            by Justin Turney, Rob Parrish, Andy Simmonett
                             and Daniel Smith
                              RKS Reference
                       16 Threads,    500 MiB Core
         ---------------------------------------------------------

  ==> Geometry <==

    Molecular point group: c1
    Full point group: C1

    Geometry (in Angstrom), charge = 0, multiplicity = 1:

       Center              X                  Y                   Z               Mass       
    ------------   -----------------  -----------------  -----------------  -----------------
         C           -2.007565974484    -0.194550028434     0.163592432572    12.000000000000
         O           -2.279903974484    -0.149872028434     1.328240432572    15.994914619560
         O           -2.590965974484     0.014221971566    -0.955954567428    15.994914619560
         N           -0.585882974484    -0.488022028434    -0.373667567428    14.003074004780
         H           -1.360310974484    -0.186250028434    -1.343085567428     1.007825032070
         H           -0.325861974484    -1.472067028434    -0.300112567428     1.007825032070
         C            0.444629025516     0.358720971566     0.228361432572    12.000000000000
         H            0.259111025516     0.387712971566     1.309643432572     1.007825032070
         C            1.784770025516    -0.316855028434     0.026805432572    12.000000000000
         O            1.919096025516    -1.461874028434    -0.327474567428    15.994914619560
         O            2.808469025516     0.491765971566     0.323647432572    15.994914619560
         H            3.622081025516    -0.026362028434     0.207048432572     1.007825032070
         C            0.378560025516     1.771333971566    -0.341963567428    12.000000000000
         H           -0.617649974484     2.184293971566    -0.178781567428     1.007825032070
         H            1.107632025516     2.412589971566     0.148689432572     1.007825032070
         H            0.581037025516     1.757027971566    -1.413634567428     1.007825032070

  Running in c1 symmetry.

  Rotational constants: A =      0.10875  B =      0.03096  C =      0.02871 [cm^-1]
  Rotational constants: A =   3260.24693  B =    928.03246  C =    860.79874 [MHz]
  Nuclear repulsion =  470.665159397740126

  Charge       = 0
  Multiplicity = 1
  Electrons    = 70
  Nalpha       = 35
  Nbeta        = 35

  ==> Algorithm <==

  SCF Algorithm Type is DF.
  DIIS enabled.
  MOM disabled.
  Fractional occupation disabled.
  Guess Type is SAD.
  Energy threshold   = 1.00e-08
  Density threshold  = 1.00e-08
  Integral threshold = 0.00e+00

  ==> Primary Basis <==

  Basis Set: 6-31+G*
    Blend: 6-31+G*
    Number of shells: 86
    Number of basis function: 185
    Number of Cartesian functions: 185
    Spherical Harmonics?: false
    Max angular momentum: 2

  ==> DFT Potential <==

   => Composite Functional: B3LYP <= 

    B3LYP Hyb-GGA Exchange-Correlation Functional

    P. J. Stephens, F. J. Devlin, C. F. Chabalowski, and M. J. Frisch, J. Phys. Chem. 98, 11623 (1994)

    Deriv               =              1
    GGA                 =           TRUE
    Meta                =          FALSE

    Exchange Hybrid     =           TRUE
    MP2 Hybrid          =          FALSE

   => Exchange Functionals <=

    0.0800   Slater exchange
    0.7200         Becke 88

   => Exact (HF) Exchange <=

    0.2000               HF 

   => Correlation Functionals <=

    0.1900   Vosko, Wilk & Nusair (VWN5_RPA)
    0.8100   Lee, Yang & Parr

   => Molecular Quadrature <=

    Radial Scheme       =       TREUTLER
    Pruning Scheme      =           FLAT
    Nuclear Scheme      =       TREUTLER

    BS radius alpha     =              1
    Pruning alpha       =              1
    Radial Points       =             75
    Spherical Points    =            302
    Total Points        =         362400
    Total Blocks        =           2736
    Max Points          =            256
    Max Functions       =            178

   => Loading Basis Set <=

    Name: (6-31+G* AUX)
    Role: JKFIT
    Keyword: DF_BASIS_SCF
    atoms 1, 7, 9, 13       entry C          line   194 file /root/psi4conda/share/psi4/basis/heavy-aug-cc-pvdz-jkfit.gbs 
    atoms 2-3, 10-11        entry O          line   310 file /root/psi4conda/share/psi4/basis/heavy-aug-cc-pvdz-jkfit.gbs 
    atoms 4                 entry N          line   252 file /root/psi4conda/share/psi4/basis/heavy-aug-cc-pvdz-jkfit.gbs 
    atoms 5-6, 8, 12, 14-16 entry H          line   116 file /root/psi4conda/share/psi4/basis/heavy-aug-cc-pvdz-jkfit.gbs 

  ==> Pre-Iterations <==

   -------------------------------------------------------
    Irrep   Nso     Nmo     Nalpha   Nbeta   Ndocc  Nsocc
   -------------------------------------------------------
     A        185     185       0       0       0       0
   -------------------------------------------------------
    Total     185     185      35      35      35       0
   -------------------------------------------------------

  ==> Integral Setup <==

  ==> DiskDFJK: Density-Fitted J/K Matrices <==

    J tasked:                  Yes
    K tasked:                  Yes
    wK tasked:                  No
    OpenMP threads:             16
    Integrals threads:          16
    Memory (MB):               375
    Algorithm:                Core
    Integral Cache:           NONE
    Schwarz Cutoff:          1E-12
    Fitting Condition:       1E-12

   => Auxiliary Basis Set <=

  Basis Set: (6-31+G* AUX)
    Blend: HEAVY-AUG-CC-PVDZ-JKFIT
    Number of shells: 315
    Number of basis function: 1084
    Number of Cartesian functions: 1084
    Spherical Harmonics?: false
    Max angular momentum: 3

  Minimum eigenvalue in the overlap matrix is 3.7686175820E-05.
  Using Symmetric Orthogonalization.

  SCF Guess: Superposition of Atomic Densities via on-the-fly atomic UHF.

  ==> Iterations <==

                           Total Energy        Delta E     RMS |[F,P]|

   @DF-RKS iter   0:  -514.13765712278689   -5.14138e+02   1.03496e-01 
   @DF-RKS iter   1:  -512.05446176572718    2.08320e+00   1.60065e-02 
   @DF-RKS iter   2:  -511.81412198157386    2.40340e-01   2.38923e-02 DIIS
   @DF-RKS iter   3:  -512.27355315643047   -4.59431e-01   3.27794e-03 DIIS
   @DF-RKS iter   4:  -512.28152592049958   -7.97276e-03   1.47090e-03 DIIS
   @DF-RKS iter   5:  -512.28330043866924   -1.77452e-03   4.21294e-04 DIIS
   @DF-RKS iter   6:  -512.28345397239877   -1.53534e-04   1.48140e-04 DIIS
   @DF-RKS iter   7:  -512.28347016327393   -1.61909e-05   5.64597e-05 DIIS
   @DF-RKS iter   8:  -512.28347357483540   -3.41156e-06   1.24767e-05 DIIS
   @DF-RKS iter   9:  -512.28347369333630   -1.18501e-07   5.52331e-06 DIIS
   @DF-RKS iter  10:  -512.28347371052973   -1.71934e-08   2.59019e-06 DIIS
   @DF-RKS iter  11:  -512.28347371670009   -6.17035e-09   6.84073e-07 DIIS
   @DF-RKS iter  12:  -512.28347371709856   -3.98472e-10   2.02001e-07 DIIS
   @DF-RKS iter  13:  -512.28347371713244   -3.38787e-11   5.28006e-08 DIIS
   @DF-RKS iter  14:  -512.28347371713539   -2.95586e-12   1.61959e-08 DIIS
   @DF-RKS iter  15:  -512.28347371713539    0.00000e+00   2.51851e-09 DIIS

  ==> Post-Iterations <==

    Orbital Energies [Eh]
    ---------------------

    Doubly Occupied:                                                      

       1A    -19.248422     2A    -19.192954     3A    -19.169797  
       4A    -19.159977     5A    -14.410700     6A    -10.368238  
       7A    -10.352587     8A    -10.281641     9A    -10.217801  
      10A     -1.162598    11A     -1.116850    12A     -1.071914  
      13A     -1.039304    14A     -0.958461    15A     -0.808816  
      16A     -0.715012    17A     -0.653587    18A     -0.606721  
      19A     -0.556778    20A     -0.540762    21A     -0.533838  
      22A     -0.526938    23A     -0.488118    24A     -0.474022  
      25A     -0.459964    26A     -0.443492    27A     -0.438787  
      28A     -0.427748    29A     -0.410766    30A     -0.392770  
      31A     -0.369599    32A     -0.327521    33A     -0.317091  
      34A     -0.316064    35A     -0.290333  

    Virtual:                                                              

      36A     -0.041850    37A     -0.022561    38A      0.001403  
      39A      0.010579    40A      0.015743    41A      0.020140  
      42A      0.044390    43A      0.049559    44A      0.057130  
      45A      0.059971    46A      0.070350    47A      0.079157  
      48A      0.090629    49A      0.095401    50A      0.100948  
      51A      0.114354    52A      0.114537    53A      0.128249  
      54A      0.135129    55A      0.141707    56A      0.152008  
      57A      0.162832    58A      0.174969    59A      0.176879  
      60A      0.189585    61A      0.199128    62A      0.203576  
      63A      0.220034    64A      0.223439    65A      0.236937  
      66A      0.239755    67A      0.249380    68A      0.256428  
      69A      0.268062    70A      0.274291    71A      0.278991  
      72A      0.284459    73A      0.297701    74A      0.299632  
      75A      0.303970    76A      0.307572    77A      0.317784  
      78A      0.331831    79A      0.339408    80A      0.342364  
      81A      0.347780    82A      0.360015    83A      0.367536  
      84A      0.394393    85A      0.416807    86A      0.434408  
      87A      0.486179    88A      0.555882    89A      0.619977  
      90A      0.632161    91A      0.661115    92A      0.677274  
      93A      0.696587    94A      0.725732    95A      0.758802  
      96A      0.768677    97A      0.791926    98A      0.801575  
      99A      0.840424   100A      0.875048   101A      0.907426  
     102A      0.932706   103A      0.947548   104A      0.974674  
     105A      0.988432   106A      1.013791   107A      1.020951  
     108A      1.039903   109A      1.077568   110A      1.095340  
     111A      1.121886   112A      1.126567   113A      1.164961  
     114A      1.193614   115A      1.199819   116A      1.239502  
     117A      1.247461   118A      1.257142   119A      1.284918  
     120A      1.297708   121A      1.304350   122A      1.312699  
     123A      1.332450   124A      1.343029   125A      1.348765  
     126A      1.371927   127A      1.400187   128A      1.442840  
     129A      1.491352   130A      1.542201   131A      1.586591  
     132A      1.601444   133A      1.607968   134A      1.648265  
     135A      1.685932   136A      1.701790   137A      1.723298  
     138A      1.743866   139A      1.760963   140A      1.774050  
     141A      1.784570   142A      1.811155   143A      1.820594  
     144A      1.838208   145A      1.869736   146A      1.902795  
     147A      1.922226   148A      1.977539   149A      1.996085  
     150A      2.029461   151A      2.051748   152A      2.069403  
     153A      2.089588   154A      2.126295   155A      2.183035  
     156A      2.196646   157A      2.284222   158A      2.289731  
     159A      2.317167   160A      2.358491   161A      2.439536  
     162A      2.459982   163A      2.530521   164A      2.562994  
     165A      2.609957   166A      2.632782   167A      2.663552  
     168A      2.785656   169A      2.859413   170A      2.897533  
     171A      2.924774   172A      2.993157   173A      3.096696  
     174A      3.112539   175A      3.128287   176A      3.220366  
     177A      4.012074   178A      4.125355   179A      4.215410  
     180A      4.237323   181A      4.357649   182A      4.436184  
     183A      4.519871   184A      4.554497   185A      4.635482  

    Final Occupation by Irrep:
              A 
    DOCC [    35 ]

  Energy converged.

  @DF-RKS Final Energy:  -512.28347371713539

   => Energetics <=

    Nuclear Repulsion Energy =            470.6651593977401262
    One-Electron Energy =               -1632.1252840879519681
    Two-Electron Energy =                 702.1835464187089428
    DFT Exchange-Correlation Energy =     -53.0068954456325514
    Empirical Dispersion Energy =           0.0000000000000000
    VV10 Nonlocal Energy =                  0.0000000000000000
    Total Energy =                       -512.2834737171353936



Properties will be evaluated at   0.000000,   0.000000,   0.000000 [a0]

Properties computed using the SCF density matrix

  Nuclear Dipole Moment: [e a0]
     X:     3.0628      Y:     4.7368      Z:    -1.4692

  Electronic Dipole Moment: [e a0]
     X:    -0.9573      Y:    -4.3876      Z:     1.1653

  Dipole Moment: [e a0]
     X:     2.1056      Y:     0.3492      Z:    -0.3039     Total:     2.1558

  Dipole Moment: [D]
     X:     5.3518      Y:     0.8876      Z:    -0.7723     Total:     5.4796


*** tstop() called on localhost.localdomain at Tue Feb 12 14:35:21 2019
Module time:
	user time   =     155.92 seconds =       2.60 minutes
	system time =       3.72 seconds =       0.06 minutes
	total time  =         12 seconds =       0.20 minutes
Total time:
	user time   =     155.92 seconds =       2.60 minutes
	system time =       3.72 seconds =       0.06 minutes
	total time  =         12 seconds =       0.20 minutes

*** tstart() called on localhost.localdomain
*** at Tue Feb 12 14:35:21 2019


         ------------------------------------------------------------
                                   SCF GRAD                          
                          Rob Parrish, Justin Turney,                
                       Andy Simmonett, and Alex Sokolov              
         ------------------------------------------------------------

  ==> Geometry <==

    Molecular point group: c1
    Full point group: C1

    Geometry (in Angstrom), charge = 0, multiplicity = 1:

       Center              X                  Y                   Z               Mass       
    ------------   -----------------  -----------------  -----------------  -----------------
         C           -2.007565974484    -0.194550028434     0.163592432572    12.000000000000
         O           -2.279903974484    -0.149872028434     1.328240432572    15.994914619560
         O           -2.590965974484     0.014221971566    -0.955954567428    15.994914619560
         N           -0.585882974484    -0.488022028434    -0.373667567428    14.003074004780
         H           -1.360310974484    -0.186250028434    -1.343085567428     1.007825032070
         H           -0.325861974484    -1.472067028434    -0.300112567428     1.007825032070
         C            0.444629025516     0.358720971566     0.228361432572    12.000000000000
         H            0.259111025516     0.387712971566     1.309643432572     1.007825032070
         C            1.784770025516    -0.316855028434     0.026805432572    12.000000000000
         O            1.919096025516    -1.461874028434    -0.327474567428    15.994914619560
         O            2.808469025516     0.491765971566     0.323647432572    15.994914619560
         H            3.622081025516    -0.026362028434     0.207048432572     1.007825032070
         C            0.378560025516     1.771333971566    -0.341963567428    12.000000000000
         H           -0.617649974484     2.184293971566    -0.178781567428     1.007825032070
         H            1.107632025516     2.412589971566     0.148689432572     1.007825032070
         H            0.581037025516     1.757027971566    -1.413634567428     1.007825032070

  Nuclear repulsion =  470.665159397740126

  ==> Basis Set <==

  Basis Set: 6-31+G*
    Blend: 6-31+G*
    Number of shells: 86
    Number of basis function: 185
    Number of Cartesian functions: 185
    Spherical Harmonics?: false
    Max angular momentum: 2

  ==> DFJKGrad: Density-Fitted SCF Gradients <==

    Gradient:                    1
    J tasked:                  Yes
    K tasked:                  Yes
    wK tasked:                  No
    OpenMP threads:             16
    Integrals threads:          16
    Memory (MB):               375
    Schwarz Cutoff:          0E+00
    Fitting Condition:       1E-12

   => Auxiliary Basis Set <=

  Basis Set: (6-31+G* AUX)
    Blend: HEAVY-AUG-CC-PVDZ-JKFIT
    Number of shells: 315
    Number of basis function: 1084
    Number of Cartesian functions: 1084
    Spherical Harmonics?: false
    Max angular momentum: 3

  ==> DFT Potential <==

   => Composite Functional: B3LYP <= 

    B3LYP Hyb-GGA Exchange-Correlation Functional

    P. J. Stephens, F. J. Devlin, C. F. Chabalowski, and M. J. Frisch, J. Phys. Chem. 98, 11623 (1994)

    Deriv               =              1
    GGA                 =           TRUE
    Meta                =          FALSE

    Exchange Hybrid     =           TRUE
    MP2 Hybrid          =          FALSE

   => Exchange Functionals <=

    0.0800   Slater exchange
    0.7200         Becke 88

   => Exact (HF) Exchange <=

    0.2000               HF 

   => Correlation Functionals <=

    0.1900   Vosko, Wilk & Nusair (VWN5_RPA)
    0.8100   Lee, Yang & Parr

   => Molecular Quadrature <=

    Radial Scheme       =       TREUTLER
    Pruning Scheme      =           FLAT
    Nuclear Scheme      =       TREUTLER

    BS radius alpha     =              1
    Pruning alpha       =              1
    Radial Points       =             75
    Spherical Points    =            302
    Total Points        =         362400
    Total Blocks        =           2736
    Max Points          =            256
    Max Functions       =            178


  -Total Gradient:
     Atom            X                  Y                   Z
    ------   -----------------  -----------------  -----------------
       1       -0.002780909738     0.002195062669     0.001661323638
       2        0.005495330587    -0.000109272256    -0.013179045353
       3        0.009796627190    -0.001607526118     0.006705519781
       4        0.003172896026    -0.001576928163     0.002060142159
       5       -0.006453971249     0.001911751194     0.002126155099
       6        0.000009045103     0.003771830540     0.000636080184
       7       -0.002621264479    -0.000973919844     0.002728424493
       8        0.000148676765    -0.000184194334    -0.002818485338
       9        0.004404419263    -0.006880235487    -0.003135843362
      10       -0.002346250602     0.013494004108     0.004261677679
      11       -0.003523771697    -0.004981582889    -0.001823097034
      12       -0.005318129747     0.001280603345    -0.000035996378
      13        0.000294480600    -0.000732723331    -0.001132356006
      14        0.001802553000    -0.002211840209    -0.000089054352
      15       -0.001595297017    -0.002317915704    -0.000974516324
      16       -0.000481470849    -0.001015512807     0.003027299301


*** tstop() called on localhost.localdomain at Tue Feb 12 14:35:25 2019
Module time:
	user time   =      49.37 seconds =       0.82 minutes
	system time =       2.03 seconds =       0.03 minutes
	total time  =          4 seconds =       0.07 minutes
Total time:
	user time   =     205.32 seconds =       3.42 minutes
	system time =       5.75 seconds =       0.10 minutes
	total time  =         16 seconds =       0.27 minutes

			-----------------------------------------
			 OPTKING 2.0: for geometry optimizations 
			  - R.A. King,  Bethel University        
			-----------------------------------------

	Internal coordinates to be generated automatically.
	Detected frag 1 with atoms:  1 2 3 4 5 6 7 8 9 10 11 12 13 14 15 16
	---Fragment 1 Bond Connectivity---
	 1 : 2 3 4
	 2 : 1
	 3 : 1
	 4 : 1 5 6 7
	 5 : 4
	 6 : 4
	 7 : 4 8 9 13
	 8 : 7
	 9 : 7 10 11
	 10 : 9
	 11 : 9 12
	 12 : 11
	 13 : 7 14 15 16
	 14 : 13
	 15 : 13
	 16 : 13

	---Fragment 1 Geometry and Gradient---
	 C          -3.7937498855       -0.3676462729        0.3091448950
	 O          -4.3083941211       -0.2832170887        2.5100106562
	 O          -4.8962161114        0.0268756313       -1.8064923279
	 N          -1.1071583677       -0.9222279806       -0.7061293672
	 H          -2.5706151973       -0.3519615460       -2.5380638955
	 H          -0.6157898889       -2.7818035330       -0.5671305615
	 C           0.8402270890        0.6778843944        0.4315405669
	 H           0.4896488762        0.7326713344        2.4748674193
	 C           3.3727265584       -0.5987692276        0.0506549264
	 O           3.6265659109       -2.7625415545       -0.6188372479
	 O           5.3072373109        0.9293030077        0.6116050112
	 H           6.8447411693       -0.0498170140        0.3912648338
	 C           0.7153747731        3.3473360961       -0.6462174899
	 H          -1.1671892978        4.1277174000       -0.3378482000
	 H           2.0931211842        4.5591343172        0.2809823064
	 H           1.0980008513        3.3203016741       -2.6713821844
	            -0.0027809097        0.0021950627        0.0016613236
	             0.0054953306       -0.0001092723       -0.0131790454
	             0.0097966272       -0.0016075261        0.0067055198
	             0.0031728960       -0.0015769282        0.0020601422
	            -0.0064539712        0.0019117512        0.0021261551
	             0.0000090451        0.0037718305        0.0006360802
	            -0.0026212645       -0.0009739198        0.0027284245
	             0.0001486768       -0.0001841943       -0.0028184853
	             0.0044044193       -0.0068802355       -0.0031358434
	            -0.0023462506        0.0134940041        0.0042616777
	            -0.0035237717       -0.0049815829       -0.0018230970
	            -0.0053181297        0.0012806033       -0.0000359964
	             0.0002944806       -0.0007327233       -0.0011323560
	             0.0018025530       -0.0022118402       -0.0000890544
	            -0.0015952970       -0.0023179157       -0.0009745163
	            -0.0004814708       -0.0010155128        0.0030272993

	Previous optimization step data not found.  Starting new optimization.

	---Fragment 1 Intrafragment Coordinates---
	 - Coordinate -           - BOHR/RAD -       - ANG/DEG -
	 H(3,5)           =         2.467212	       1.305592
	 H(6,10)          =         4.242715	       2.245148
	 R(1,2)           =         2.261813	       1.196900
	 R(1,3)           =         2.418057	       1.279581
	 R(1,4)           =         2.925084	       1.547888
	 R(4,5)           =         2.413067	       1.276940
	 R(4,6)           =         1.928415	       1.020473
	 R(4,7)           =         2.765314	       1.463341
	 R(7,8)           =         2.073907	       1.097464
	 R(7,9)           =         2.861551	       1.514267
	 R(7,13)          =         2.881514	       1.524832
	 R(9,10)          =         2.279159	       1.206079
	 R(9,11)          =         2.528241	       1.337887
	 R(11,12)         =         1.836068	       0.971605
	 R(13,14)         =         2.061100	       1.090687
	 R(13,15)         =         2.055806	       1.087886
	 R(13,16)         =         2.061171	       1.090725
	 B(1,4,5)         =         1.225658	      70.225035
	 B(1,4,6)         =         1.973425	     113.068920
	 B(1,4,7)         =         1.976100	     113.222206
	 B(2,1,3)         =         2.406138	     137.861540
	 B(2,1,4)         =         2.157719	     123.628179
	 B(3,1,4)         =         1.717328	      98.395667
	 B(4,7,8)         =         1.877150	     107.552767
	 B(4,7,9)         =         1.886333	     108.078914
	 B(4,7,13)        =         1.930143	     110.589072
	 B(5,4,6)         =         2.023213	     115.921564
	 B(5,4,7)         =         2.217641	     127.061479
	 B(6,4,7)         =         1.927182	     110.419377
	 B(7,9,10)        =         2.166655	     124.140202
	 B(7,9,11)        =         1.958425	     112.209495
	 B(7,13,14)       =         1.911739	     109.534560
	 B(7,13,15)       =         1.926599	     110.385985
	 B(7,13,16)       =         1.925483	     110.322078
	 B(8,7,9)         =         1.867670	     107.009597
	 B(8,7,13)        =         1.914219	     109.676697
	 B(9,7,13)        =         1.984353	     113.695077
	 B(9,11,12)       =         1.866907	     106.965881
	 B(10,9,11)       =         2.157667	     123.625191
	 B(14,13,15)      =         1.898071	     108.751437
	 B(14,13,16)      =         1.898132	     108.754972
	 B(15,13,16)      =         1.903352	     109.054047
	 D(1,4,7,8)       =         0.782823	      44.852429
	 D(1,4,7,9)       =         2.793696	     160.067002
	 D(1,4,7,13)      =        -1.307048	     -74.888337
	 D(2,1,4,5)       =        -3.037015	    -174.008118
	 D(2,1,4,6)       =         1.315893	      75.395131
	 D(2,1,4,7)       =        -0.892640	     -51.144509
	 D(3,1,4,5)       =         0.047517	       2.722538
	 D(3,1,4,6)       =        -1.882760	    -107.874213
	 D(3,1,4,7)       =         2.191892	     125.586147
	 D(4,7,9,10)      =        -0.230916	     -13.230502
	 D(4,7,9,11)      =         2.941539	     168.537761
	 D(4,7,13,14)     =         0.995292	      57.026053
	 D(4,7,13,15)     =         3.084772	     176.744435
	 D(4,7,13,16)     =        -1.093572	     -62.657062
	 D(5,4,7,8)       =         2.215874	     126.960226
	 D(5,4,7,9)       =        -2.056438	    -117.825202
	 D(5,4,7,13)      =         0.126003	       7.219460
	 D(6,4,7,8)       =        -1.449982	     -83.077840
	 D(6,4,7,9)       =         0.560892	      32.136732
	 D(6,4,7,13)      =         2.743333	     157.181394
	 D(7,9,11,12)     =         3.098279	     177.518314
	 D(8,7,9,10)      =         1.786171	     102.340068
	 D(8,7,9,11)      =        -1.324559	     -75.891668
	 D(8,7,13,14)     =        -1.072142	     -61.429214
	 D(8,7,13,15)     =         1.017338	      58.289167
	 D(8,7,13,16)     =         3.122179	     178.887671
	 D(9,7,13,14)     =         3.121019	     178.821190
	 D(9,7,13,15)     =        -1.072687	     -61.460428
	 D(9,7,13,16)     =         1.032154	      59.138075
	 D(10,9,7,13)     =        -2.380785	    -136.408946
	 D(10,9,11,12)    =        -0.012637	      -0.724068
	 D(11,9,7,13)     =         0.791669	      45.359317
	 R(3,13)          =         6.622813	       3.504642

	Current energy   :      -512.2834737171

	Generating empirical Hessian (Schlegel '84) for each fragment.
	Taking PRFO optimization step.
	Maximizing along 1 lowest eigenvalue of Hessian.

 RFO min eigenvalues
 -0.003121 -0.000000 -0.000000 -0.000000 -0.000000 -0.000000 -0.000000 -0.000000
 -0.000000 -0.000000 -0.000000 -0.000000 -0.000000 -0.000000  0.000000  0.000000
  0.000000  0.000000  0.000000  0.000000  0.000000  0.000000  0.000000  0.000000
  0.000000  0.000000  0.000000  0.000000  0.000000  0.000000  0.000000  0.000000
  0.000000  0.001663  0.002616  0.003086  0.003829  0.005609  0.006030  0.013164
  0.027226  0.031454  0.035631  0.041582  0.047147  0.055053  0.056141  0.062869
  0.066391  0.085717  0.102563  0.134855  0.160000  0.160000  0.160000  0.160120
  0.197082  0.199275  0.217955  0.249985  0.250063  0.272736  0.296062  0.301621
  0.338442  0.339664  0.347306  0.347362  0.350605  0.441586  0.530553  0.576964
  0.720460  1.017666  1.064151

 RFO max eigenvalues
 -0.000000  0.000000
	|RFO target step|  :        0.2928167152
	RFO gradient       :       -0.0106569509
	RFO hessian        :        0.0333451049
	Projected Delta(E) :       -0.0015574622

	Back-transformation to cartesian coordinates...
	Successfully converged to displaced geometry.
	First geometry is closer to target in internal coordinates, so am using that one.
	First geometry has RMS(Delta(q)) = 5.22e-03

	--- Internal Coordinate Step in ANG or DEG, aJ/ANG or AJ/DEG ---
	 ---------------------------------------------------------------------------
	   Coordinate                Previous        Force       Change         New 
	   ----------                --------       ------       ------       ------
	    1 H(3,5)          =      1.305592     0.033177     0.059165     1.364757
	    2 H(6,10)         =      2.245148     0.011707     0.005657     2.250805
	    3 R(1,2)          =      1.196900     0.116026     0.013055     1.209955
	    4 R(1,3)          =      1.279581     0.066445     0.006676     1.286257
	    5 R(1,4)          =      1.547888     0.055142     0.016221     1.564108
	    6 R(4,5)          =      1.276940    -0.009981    -0.003088     1.273852
	    7 R(4,6)          =      1.020473     0.032462     0.004475     1.024949
	    8 R(4,7)          =      1.463341     0.037046     0.011200     1.474541
	    9 R(7,8)          =      1.097464     0.023132     0.004487     1.101951
	   10 R(7,9)          =      1.514267     0.048969     0.011813     1.526081
	   11 R(7,13)         =      1.524832     0.039258     0.009857     1.534689
	   12 R(9,10)         =      1.206079     0.116688     0.007490     1.213569
	   13 R(9,11)         =      1.337887     0.077600     0.009142     1.347030
	   14 R(11,12)        =      0.971605     0.042272     0.005418     0.977023
	   15 R(13,14)        =      1.090687     0.020581     0.004081     1.094768
	   16 R(13,15)        =      1.087886     0.023700     0.004492     1.092378
	   17 R(13,16)        =      1.090725     0.025141     0.004767     1.095492
	   18 B(1,4,5)        =     70.225035     0.000056     1.802028    72.027063
	   19 B(1,4,6)        =    113.068920    -0.000055    -0.230192   112.838728
	   20 B(1,4,7)        =    113.222206     0.000132     1.677445   114.899651
	   21 B(2,1,3)        =    137.861540    -0.000092    -0.739747   137.121793
	   22 B(2,1,4)        =    123.628179     0.000289     0.613522   124.241701
	   23 B(3,1,4)        =     98.395667    -0.000201     0.156554    98.552220
	   24 B(4,7,8)        =    107.552767     0.000068    -0.365867   107.186900
	   25 B(4,7,9)        =    108.078914    -0.000041     0.352638   108.431552
	   26 B(4,7,13)       =    110.589072    -0.000153     0.419990   111.009062
	   27 B(5,4,6)        =    115.921564    -0.000025    -1.006962   114.914602
	   28 B(5,4,7)        =    127.061479    -0.000089    -0.743342   126.318137
	   29 B(6,4,7)        =    110.419377     0.000025    -0.223482   110.195895
	   30 B(7,9,10)       =    124.140202    -0.000152    -0.095041   124.045161
	   31 B(7,9,11)       =    112.209495     0.000189     0.373234   112.582730
	   32 B(7,13,14)      =    109.534560     0.000119     0.555582   110.090142
	   33 B(7,13,15)      =    110.385985     0.000037     0.109185   110.495170
	   34 B(7,13,16)      =    110.322078     0.000087     0.440493   110.762570
	   35 B(8,7,9)        =    107.009597    -0.000076    -0.640413   106.369184
	   36 B(8,7,13)       =    109.676697    -0.000030    -0.513367   109.163330
	   37 B(9,7,13)       =    113.695077     0.000228     0.653879   114.348956
	   38 B(9,11,12)      =    106.965881     0.000264     1.236045   108.201926
	   39 B(10,9,11)      =    123.625191    -0.000038    -0.326314   123.298877
	   40 B(14,13,15)     =    108.751437    -0.000093    -0.516104   108.235333
	   41 B(14,13,16)     =    108.754972    -0.000086    -0.276985   108.477986
	   42 B(15,13,16)     =    109.054047    -0.000069    -0.343541   108.710506
	   43 D(1,4,7,8)      =     44.852429    -0.000006    -0.799515    44.052914
	   44 D(1,4,7,9)      =    160.067002    -0.000022    -1.555878   158.511124
	   45 D(1,4,7,13)     =    -74.888337     0.000014    -0.193119   -75.081456
	   46 D(2,1,4,5)      =   -174.008118    -0.000002    -6.291174  -180.299292
	   47 D(2,1,4,6)      =     75.395131    -0.000003    -5.810977    69.584154
	   48 D(2,1,4,7)      =    -51.144509    -0.000026    -6.750956   -57.895464
	   49 D(3,1,4,5)      =      2.722538    -0.000016    -0.187297     2.535241
	   50 D(3,1,4,6)      =   -107.874213    -0.000016     0.292900  -107.581313
	   51 D(3,1,4,7)      =    125.586147    -0.000039    -0.647079   124.939068
	   52 D(4,7,9,10)     =    -13.230502    -0.000006     1.343519   -11.886983
	   53 D(4,7,9,11)     =    168.537761    -0.000003     2.602820   171.140581
	   54 D(4,7,13,14)    =     57.026053     0.000002     0.017251    57.043304
	   55 D(4,7,13,15)    =    176.744435    -0.000002    -0.201063   176.543372
	   56 D(4,7,13,16)    =    -62.657062    -0.000003    -0.271602   -62.928664
	   57 D(5,4,7,8)      =    126.960226     0.000026     2.446132   129.406358
	   58 D(5,4,7,9)      =   -117.825202     0.000009     1.689769  -116.135432
	   59 D(5,4,7,13)     =      7.219460     0.000045     3.052528    10.271988
	   60 D(6,4,7,8)      =    -83.077840    -0.000018    -1.675847   -84.753687
	   61 D(6,4,7,9)      =     32.136732    -0.000035    -2.432210    29.704523
	   62 D(6,4,7,13)     =    157.181394     0.000001    -1.069451   156.111943
	   63 D(7,9,11,12)    =    177.518314    -0.000004    -1.068128   176.450185
	   64 D(8,7,9,10)     =    102.340068    -0.000002     0.766545   103.106614
	   65 D(8,7,9,11)     =    -75.891668     0.000002     2.025846   -73.865823
	   66 D(8,7,13,14)    =    -61.429214     0.000008     0.531411   -60.897803
	   67 D(8,7,13,15)    =     58.289167     0.000004     0.313097    58.602264
	   68 D(8,7,13,16)    =    178.887671     0.000003     0.242558   179.130229
	   69 D(9,7,13,14)    =    178.821190     0.000001     1.284469   180.105660
	   70 D(9,7,13,15)    =    -61.460428    -0.000003     1.066155   -60.394273
	   71 D(9,7,13,16)    =     59.138075    -0.000004     0.995616    60.133691
	   72 D(10,9,7,13)    =   -136.408946     0.000010     0.076902  -136.332043
	   73 D(10,9,11,12)   =     -0.724068    -0.000000     0.175634    -0.548434
	   74 D(11,9,7,13)    =     45.359317     0.000014     1.336203    46.695520
	   75 R(3,13)         =      3.504642     0.031324     0.056917     3.561559
	 ---------------------------------------------------------------------------
	Successfully symmetrized geometry.

  ==> Convergence Check <==

  Measures of convergence in internal coordinates in au.
  Criteria marked as inactive (o), active & met (*), and active & unmet ( ).
  --------------------------------------------------------------------------------------------- ~
   Step     Total Energy     Delta E     MAX Force     RMS Force      MAX Disp      RMS Disp    ~
  --------------------------------------------------------------------------------------------- ~
    Convergence Criteria    1.00e-06 *    3.00e-04 *             o    1.20e-03 *             o  ~
  --------------------------------------------------------------------------------------------- ~
      1    -512.28347372   -5.12e+02      1.42e-02      3.43e-03 o    1.18e-01      3.35e-02 o  ~
  ---------------------------------------------------------------------------------------------

	Writing optimization data to binary file.
	Structure for next step:
	Cartesian Geometry (in Angstrom)
	    C    -2.0409447361  -0.2046904379   0.1845596482
	    O    -2.3489643531  -0.2758584105   1.3524852925
	    O    -2.6358742158   0.0076846024  -0.9358924135
	    N    -0.6014502851  -0.4754256320  -0.3640689401
	    H    -1.3505440354  -0.1845374758  -1.3524724779
	    H    -0.3313947544  -1.4622501703  -0.3026895342
	    C     0.4535601993   0.3779086554   0.2130320175
	    H     0.2792694026   0.4207599540   1.3002682684
	    C     1.7973412236  -0.3191696878   0.0200132880
	    O     1.9192020091  -1.4745411135  -0.3307246286
	    O     2.8403238951   0.4691156160   0.3444855336
	    H     3.6595043162  -0.0553223798   0.2523832061
	    C     0.3890674339   1.7985646143  -0.3638975474
	    H    -0.6003060920   2.2321475492  -0.1859577563
	    H     1.1339708483   2.4393694773   0.1133632471
	    H     0.5744825518   1.7880603842  -1.4435332821
			--------------------------
			 OPTKING Finished Execution 
			--------------------------

    Structure for next step:
    Molecular point group: c1
    Full point group: C1

    Geometry (in Angstrom), charge = 0, multiplicity = 1:

    C           -2.030072562325    -0.189819236316     0.178557037473
    O           -2.338092179259    -0.260987208861     1.346482681805
    O           -2.625002041997     0.022555804014    -0.941895024250
    N           -0.590578111265    -0.460554430380    -0.370071550776
    H           -1.339671861571    -0.169666274211    -1.358475088649
    H           -0.320522580580    -1.447378968672    -0.308692144889
    C            0.464432373138     0.392779857039     0.207029406804
    H            0.290141576401     0.435631155626     1.294265657738
    C            1.808213397389    -0.304298486152     0.014010677254
    O            1.930074182944    -1.459669911916    -0.336727239330
    O            2.851196068880     0.483986817617     0.338482922855
    H            3.670376489997    -0.040451178189     0.246380595424
    C            0.399939607722     1.813435815894    -0.369900158133
    H           -0.589433918201     2.247018750809    -0.191960367026
    H            1.144843022073     2.454240678913     0.107360636422
    H            0.585354725626     1.802931585771    -1.449535892835

gradient() will perform analytic gradient computation.

*** tstart() called on localhost.localdomain
*** at Tue Feb 12 14:35:25 2019

   => Loading Basis Set <=

    Name: 6-31+G*
    Role: ORBITAL
    Keyword: BASIS
    atoms 1, 7, 9, 13       entry C          line   119 file /root/psi4conda/share/psi4/basis/6-31pgs.gbs 
    atoms 2-3, 10-11        entry O          line   157 file /root/psi4conda/share/psi4/basis/6-31pgs.gbs 
    atoms 4                 entry N          line   138 file /root/psi4conda/share/psi4/basis/6-31pgs.gbs 
    atoms 5-6, 8, 12, 14-16 entry H          line    46 file /root/psi4conda/share/psi4/basis/6-31pgs.gbs 


         ---------------------------------------------------------
                                   SCF
            by Justin Turney, Rob Parrish, Andy Simmonett
                             and Daniel Smith
                              RKS Reference
                       16 Threads,    500 MiB Core
         ---------------------------------------------------------

  ==> Geometry <==

    Molecular point group: c1
    Full point group: C1

    Geometry (in Angstrom), charge = 0, multiplicity = 1:

       Center              X                  Y                   Z               Mass       
    ------------   -----------------  -----------------  -----------------  -----------------
         C           -2.030072562325    -0.189819236316     0.178557037473    12.000000000000
         O           -2.338092179259    -0.260987208861     1.346482681805    15.994914619560
         O           -2.625002041997     0.022555804014    -0.941895024250    15.994914619560
         N           -0.590578111265    -0.460554430380    -0.370071550776    14.003074004780
         H           -1.339671861571    -0.169666274211    -1.358475088649     1.007825032070
         H           -0.320522580580    -1.447378968672    -0.308692144889     1.007825032070
         C            0.464432373138     0.392779857039     0.207029406804    12.000000000000
         H            0.290141576401     0.435631155626     1.294265657738     1.007825032070
         C            1.808213397389    -0.304298486152     0.014010677254    12.000000000000
         O            1.930074182944    -1.459669911916    -0.336727239330    15.994914619560
         O            2.851196068880     0.483986817617     0.338482922855    15.994914619560
         H            3.670376489997    -0.040451178189     0.246380595424     1.007825032070
         C            0.399939607722     1.813435815894    -0.369900158133    12.000000000000
         H           -0.589433918201     2.247018750809    -0.191960367026     1.007825032070
         H            1.144843022073     2.454240678913     0.107360636422     1.007825032070
         H            0.585354725626     1.802931585771    -1.449535892835     1.007825032070

  Running in c1 symmetry.

  Rotational constants: A =      0.10627  B =      0.03010  C =      0.02788 [cm^-1]
  Rotational constants: A =   3185.96941  B =    902.45138  C =    835.87000 [MHz]
  Nuclear repulsion =  465.485897844778322

  Charge       = 0
  Multiplicity = 1
  Electrons    = 70
  Nalpha       = 35
  Nbeta        = 35

  ==> Algorithm <==

  SCF Algorithm Type is DF.
  DIIS enabled.
  MOM disabled.
  Fractional occupation disabled.
  Guess Type is READ.
  Energy threshold   = 1.00e-08
  Density threshold  = 1.00e-08
  Integral threshold = 0.00e+00

  ==> Primary Basis <==

  Basis Set: 6-31+G*
    Blend: 6-31+G*
    Number of shells: 86
    Number of basis function: 185
    Number of Cartesian functions: 185
    Spherical Harmonics?: false
    Max angular momentum: 2

  ==> DFT Potential <==

   => Composite Functional: B3LYP <= 

    B3LYP Hyb-GGA Exchange-Correlation Functional

    P. J. Stephens, F. J. Devlin, C. F. Chabalowski, and M. J. Frisch, J. Phys. Chem. 98, 11623 (1994)

    Deriv               =              1
    GGA                 =           TRUE
    Meta                =          FALSE

    Exchange Hybrid     =           TRUE
    MP2 Hybrid          =          FALSE

   => Exchange Functionals <=

    0.0800   Slater exchange
    0.7200         Becke 88

   => Exact (HF) Exchange <=

    0.2000               HF 

   => Correlation Functionals <=

    0.1900   Vosko, Wilk & Nusair (VWN5_RPA)
    0.8100   Lee, Yang & Parr

   => Molecular Quadrature <=

    Radial Scheme       =       TREUTLER
    Pruning Scheme      =           FLAT
    Nuclear Scheme      =       TREUTLER

    BS radius alpha     =              1
    Pruning alpha       =              1
    Radial Points       =             75
    Spherical Points    =            302
    Total Points        =         362400
    Total Blocks        =           2722
    Max Points          =            256
    Max Functions       =            178

   => Loading Basis Set <=

    Name: (6-31+G* AUX)
    Role: JKFIT
    Keyword: DF_BASIS_SCF
    atoms 1, 7, 9, 13       entry C          line   194 file /root/psi4conda/share/psi4/basis/heavy-aug-cc-pvdz-jkfit.gbs 
    atoms 2-3, 10-11        entry O          line   310 file /root/psi4conda/share/psi4/basis/heavy-aug-cc-pvdz-jkfit.gbs 
    atoms 4                 entry N          line   252 file /root/psi4conda/share/psi4/basis/heavy-aug-cc-pvdz-jkfit.gbs 
    atoms 5-6, 8, 12, 14-16 entry H          line   116 file /root/psi4conda/share/psi4/basis/heavy-aug-cc-pvdz-jkfit.gbs 

  Reading orbitals from file 180, no projection.

  ==> Pre-Iterations <==

   -------------------------------------------------------
    Irrep   Nso     Nmo     Nalpha   Nbeta   Ndocc  Nsocc
   -------------------------------------------------------
     A        185     185       0       0       0       0
   -------------------------------------------------------
    Total     185     185      35      35      35       0
   -------------------------------------------------------

  ==> Integral Setup <==

  ==> DiskDFJK: Density-Fitted J/K Matrices <==

    J tasked:                  Yes
    K tasked:                  Yes
    wK tasked:                  No
    OpenMP threads:             16
    Integrals threads:          16
    Memory (MB):               375
    Algorithm:                Core
    Integral Cache:           NONE
    Schwarz Cutoff:          1E-12
    Fitting Condition:       1E-12

   => Auxiliary Basis Set <=

  Basis Set: (6-31+G* AUX)
    Blend: HEAVY-AUG-CC-PVDZ-JKFIT
    Number of shells: 315
    Number of basis function: 1084
    Number of Cartesian functions: 1084
    Spherical Harmonics?: false
    Max angular momentum: 3

  Minimum eigenvalue in the overlap matrix is 4.0655424895E-05.
  Using Symmetric Orthogonalization.

  SCF Guess: Orbitals guess was supplied from a previous computation.

  ==> Iterations <==

                           Total Energy        Delta E     RMS |[F,P]|

   @DF-RKS iter   0:  -512.22965756398196   -5.12230e+02   3.86831e-03 
   @DF-RKS iter   1:  -512.28396350685193   -5.43059e-02   8.08140e-04 
   @DF-RKS iter   2:  -512.28282831645436    1.13519e-03   1.31529e-03 DIIS
   @DF-RKS iter   3:  -512.28462482760676   -1.79651e-03   2.28673e-04 DIIS
   @DF-RKS iter   4:  -512.28467051843541   -4.56908e-05   9.69158e-05 DIIS
   @DF-RKS iter   5:  -512.28467752514928   -7.00671e-06   3.84326e-05 DIIS
   @DF-RKS iter   6:  -512.28467869320264   -1.16805e-06   1.39353e-05 DIIS
   @DF-RKS iter   7:  -512.28467886886381   -1.75661e-07   4.27955e-06 DIIS
   @DF-RKS iter   8:  -512.28467888461398   -1.57502e-08   9.37021e-07 DIIS
   @DF-RKS iter   9:  -512.28467888515934   -5.45356e-10   5.72851e-07 DIIS
   @DF-RKS iter  10:  -512.28467888541934   -2.60002e-10   1.45089e-07 DIIS
   @DF-RKS iter  11:  -512.28467888544208   -2.27374e-11   4.13758e-08 DIIS
   @DF-RKS iter  12:  -512.28467888544299   -9.09495e-13   1.36550e-08 DIIS
   @DF-RKS iter  13:  -512.28467888544276    2.27374e-13   5.45507e-09 DIIS

  ==> Post-Iterations <==

    Orbital Energies [Eh]
    ---------------------

    Doubly Occupied:                                                      

       1A    -19.250542     2A    -19.196184     3A    -19.165606  
       4A    -19.158613     5A    -14.419223     6A    -10.373444  
       7A    -10.352843     8A    -10.289261     9A    -10.223035  
      10A     -1.158815    11A     -1.104916    12A     -1.070151  
      13A     -1.027949    14A     -0.957086    15A     -0.808646  
      16A     -0.715867    17A     -0.654191    18A     -0.605282  
      19A     -0.555750    20A     -0.540094    21A     -0.532273  
      22A     -0.523636    23A     -0.487338    24A     -0.471785  
      25A     -0.456891    26A     -0.440209    27A     -0.437525  
      28A     -0.428871    29A     -0.412149    30A     -0.394879  
      31A     -0.370497    32A     -0.329544    33A     -0.313846  
      34A     -0.310181    35A     -0.287837  

    Virtual:                                                              

      36A     -0.047595    37A     -0.024773    38A     -0.000833  
      39A      0.008572    40A      0.013650    41A      0.017236  
      42A      0.042158    43A      0.047177    44A      0.054268  
      45A      0.057538    46A      0.069940    47A      0.075192  
      48A      0.089914    49A      0.093506    50A      0.099228  
      51A      0.108852    52A      0.111928    53A      0.124573  
      54A      0.132546    55A      0.139545    56A      0.147279  
      57A      0.161245    58A      0.170313    59A      0.172861  
      60A      0.187398    61A      0.195124    62A      0.198079  
      63A      0.217755    64A      0.221410    65A      0.233030  
      66A      0.238253    67A      0.245985    68A      0.252739  
      69A      0.265335    70A      0.271342    71A      0.277300  
      72A      0.285192    73A      0.292631    74A      0.297743  
      75A      0.298901    76A      0.304549    77A      0.317424  
      78A      0.329874    79A      0.334139    80A      0.337240  
      81A      0.344791    82A      0.355790    83A      0.361028  
      84A      0.392309    85A      0.414294    86A      0.432743  
      87A      0.475957    88A      0.541707    89A      0.617748  
      90A      0.624615    91A      0.651976    92A      0.673627  
      93A      0.696662    94A      0.725614    95A      0.757984  
      96A      0.762274    97A      0.788978    98A      0.798320  
      99A      0.839492   100A      0.873908   101A      0.903656  
     102A      0.936570   103A      0.943920   104A      0.969598  
     105A      0.984218   106A      1.009427   107A      1.017128  
     108A      1.037793   109A      1.078192   110A      1.099653  
     111A      1.112468   112A      1.122624   113A      1.165635  
     114A      1.188528   115A      1.202794   116A      1.234708  
     117A      1.249345   118A      1.254775   119A      1.283307  
     120A      1.295099   121A      1.304734   122A      1.313596  
     123A      1.332196   124A      1.336374   125A      1.347699  
     126A      1.379719   127A      1.401870   128A      1.442440  
     129A      1.475734   130A      1.540176   131A      1.576524  
     132A      1.593562   133A      1.597380   134A      1.652798  
     135A      1.676579   136A      1.690333   137A      1.715335  
     138A      1.741391   139A      1.751349   140A      1.765841  
     141A      1.779204   142A      1.802681   143A      1.816574  
     144A      1.830196   145A      1.862588   146A      1.897609  
     147A      1.914388   148A      1.960534   149A      1.968073  
     150A      2.003164   151A      2.019005   152A      2.055171  
     153A      2.076242   154A      2.114002   155A      2.172568  
     156A      2.196076   157A      2.271726   158A      2.276505  
     159A      2.306988   160A      2.345559   161A      2.425007  
     162A      2.441354   163A      2.512603   164A      2.548603  
     165A      2.596014   166A      2.619608   167A      2.642056  
     168A      2.766072   169A      2.845531   170A      2.883797  
     171A      2.908287   172A      2.951597   173A      3.078606  
     174A      3.091905   175A      3.115362   176A      3.199116  
     177A      3.987685   178A      4.115872   179A      4.200608  
     180A      4.227554   181A      4.343854   182A      4.416999  
     183A      4.508772   184A      4.537360   185A      4.641052  

    Final Occupation by Irrep:
              A 
    DOCC [    35 ]

  Energy converged.

  @DF-RKS Final Energy:  -512.28467888544276

   => Energetics <=

    Nuclear Repulsion Energy =            465.4858978447783215
    One-Electron Energy =               -1621.8592814813755467
    Two-Electron Energy =                 697.0362475814880554
    DFT Exchange-Correlation Energy =     -52.9475428303335676
    Empirical Dispersion Energy =           0.0000000000000000
    VV10 Nonlocal Energy =                  0.0000000000000000
    Total Energy =                       -512.2846788854427587



Properties will be evaluated at   0.000000,   0.000000,   0.000000 [a0]

Properties computed using the SCF density matrix

  Nuclear Dipole Moment: [e a0]
     X:     3.2268      Y:     4.9475      Z:    -1.5538

  Electronic Dipole Moment: [e a0]
     X:    -0.9543      Y:    -4.4941      Z:     1.2192

  Dipole Moment: [e a0]
     X:     2.2724      Y:     0.4534      Z:    -0.3346     Total:     2.3413

  Dipole Moment: [D]
     X:     5.7759      Y:     1.1525      Z:    -0.8503     Total:     5.9509


*** tstop() called on localhost.localdomain at Tue Feb 12 14:35:34 2019
Module time:
	user time   =     131.71 seconds =       2.20 minutes
	system time =       2.92 seconds =       0.05 minutes
	total time  =          9 seconds =       0.15 minutes
Total time:
	user time   =     337.84 seconds =       5.63 minutes
	system time =       8.73 seconds =       0.15 minutes
	total time  =         25 seconds =       0.42 minutes

*** tstart() called on localhost.localdomain
*** at Tue Feb 12 14:35:34 2019


         ------------------------------------------------------------
                                   SCF GRAD                          
                          Rob Parrish, Justin Turney,                
                       Andy Simmonett, and Alex Sokolov              
         ------------------------------------------------------------

  ==> Geometry <==

    Molecular point group: c1
    Full point group: C1

    Geometry (in Angstrom), charge = 0, multiplicity = 1:

       Center              X                  Y                   Z               Mass       
    ------------   -----------------  -----------------  -----------------  -----------------
         C           -2.030072562325    -0.189819236316     0.178557037473    12.000000000000
         O           -2.338092179259    -0.260987208861     1.346482681805    15.994914619560
         O           -2.625002041997     0.022555804014    -0.941895024250    15.994914619560
         N           -0.590578111265    -0.460554430380    -0.370071550776    14.003074004780
         H           -1.339671861571    -0.169666274211    -1.358475088649     1.007825032070
         H           -0.320522580580    -1.447378968672    -0.308692144889     1.007825032070
         C            0.464432373138     0.392779857039     0.207029406804    12.000000000000
         H            0.290141576401     0.435631155626     1.294265657738     1.007825032070
         C            1.808213397389    -0.304298486152     0.014010677254    12.000000000000
         O            1.930074182944    -1.459669911916    -0.336727239330    15.994914619560
         O            2.851196068880     0.483986817617     0.338482922855    15.994914619560
         H            3.670376489997    -0.040451178189     0.246380595424     1.007825032070
         C            0.399939607722     1.813435815894    -0.369900158133    12.000000000000
         H           -0.589433918201     2.247018750809    -0.191960367026     1.007825032070
         H            1.144843022073     2.454240678913     0.107360636422     1.007825032070
         H            0.585354725626     1.802931585771    -1.449535892835     1.007825032070

  Nuclear repulsion =  465.485897844778322

  ==> Basis Set <==

  Basis Set: 6-31+G*
    Blend: 6-31+G*
    Number of shells: 86
    Number of basis function: 185
    Number of Cartesian functions: 185
    Spherical Harmonics?: false
    Max angular momentum: 2

  ==> DFJKGrad: Density-Fitted SCF Gradients <==

    Gradient:                    1
    J tasked:                  Yes
    K tasked:                  Yes
    wK tasked:                  No
    OpenMP threads:             16
    Integrals threads:          16
    Memory (MB):               375
    Schwarz Cutoff:          0E+00
    Fitting Condition:       1E-12

   => Auxiliary Basis Set <=

  Basis Set: (6-31+G* AUX)
    Blend: HEAVY-AUG-CC-PVDZ-JKFIT
    Number of shells: 315
    Number of basis function: 1084
    Number of Cartesian functions: 1084
    Spherical Harmonics?: false
    Max angular momentum: 3

  ==> DFT Potential <==

   => Composite Functional: B3LYP <= 

    B3LYP Hyb-GGA Exchange-Correlation Functional

    P. J. Stephens, F. J. Devlin, C. F. Chabalowski, and M. J. Frisch, J. Phys. Chem. 98, 11623 (1994)

    Deriv               =              1
    GGA                 =           TRUE
    Meta                =          FALSE

    Exchange Hybrid     =           TRUE
    MP2 Hybrid          =          FALSE

   => Exchange Functionals <=

    0.0800   Slater exchange
    0.7200         Becke 88

   => Exact (HF) Exchange <=

    0.2000               HF 

   => Correlation Functionals <=

    0.1900   Vosko, Wilk & Nusair (VWN5_RPA)
    0.8100   Lee, Yang & Parr

   => Molecular Quadrature <=

    Radial Scheme       =       TREUTLER
    Pruning Scheme      =           FLAT
    Nuclear Scheme      =       TREUTLER

    BS radius alpha     =              1
    Pruning alpha       =              1
    Radial Points       =             75
    Spherical Points    =            302
    Total Points        =         362400
    Total Blocks        =           2722
    Max Points          =            256
    Max Functions       =            178


  -Total Gradient:
     Atom            X                  Y                   Z
    ------   -----------------  -----------------  -----------------
       1        0.012515009626     0.011339175223    -0.002070138421
       2       -0.005570647519    -0.005010686631     0.007183874212
       3        0.000081714722    -0.002680932037    -0.004877042203
       4        0.005265159080    -0.006964221599     0.008414030399
       5       -0.012433667185     0.003365979824    -0.010014204562
       6        0.001212969900     0.000598963530     0.000197311201
       7       -0.001569232218    -0.002188466645     0.001918115261
       8       -0.000275128981     0.000318500501     0.000169839096
       9       -0.000907652861     0.001459388141    -0.002009534462
      10        0.000606020367    -0.000100429124     0.001018694288
      11        0.001134334231    -0.001456644041     0.000217486398
      12        0.000999060910     0.000371145754     0.000275970594
      13       -0.000720571025     0.000347477388    -0.000154578665
      14       -0.000106788135     0.000399552311    -0.000042343924
      15       -0.000257532408     0.000288266724    -0.000147856380
      16        0.000044452913    -0.000067028331    -0.000078896075


*** tstop() called on localhost.localdomain at Tue Feb 12 14:35:38 2019
Module time:
	user time   =      56.47 seconds =       0.94 minutes
	system time =       2.26 seconds =       0.04 minutes
	total time  =          4 seconds =       0.07 minutes
Total time:
	user time   =     394.35 seconds =       6.57 minutes
	system time =      10.99 seconds =       0.18 minutes
	total time  =         29 seconds =       0.48 minutes

			-----------------------------------------
			 OPTKING 2.0: for geometry optimizations 
			  - R.A. King,  Bethel University        
			-----------------------------------------

	Previous internal coordinate definitions found.
	---Fragment 1 Geometry and Gradient---
	 C          -3.8362811727       -0.3587063714        0.3374238999
	 O          -4.4183538922       -0.4931943489        2.5444835113
	 O          -4.9605349576        0.0426242923       -1.7799236418
	 N          -1.1160308904       -0.8703217427       -0.6993338805
	 H          -2.5316129263       -0.3206227922       -2.5671458759
	 H          -0.6056998967       -2.7351498613       -0.5833436132
	 C           0.8776499925        0.7422463603        0.3912288803
	 H           0.5482881192        0.8232235791        2.4458076363
	 C           3.4170281109       -0.5750408015        0.0264763429
	 O           3.6473116219       -2.7583763779       -0.6363222638
	 O           5.3879797213        0.9146025372        0.6396400249
	 H           6.9360063707       -0.0764416485        0.4655918498
	 C           0.7557763283        3.4268970516       -0.6990099954
	 H          -1.1138686788        4.2462500545       -0.3627525220
	 H           2.1634397769        4.6378427473        0.2028822003
	 H           1.1061601220        3.4070469334       -2.7392258572
	             0.0125150096        0.0113391752       -0.0020701384
	            -0.0055706475       -0.0050106866        0.0071838742
	             0.0000817147       -0.0026809320       -0.0048770422
	             0.0052651591       -0.0069642216        0.0084140304
	            -0.0124336672        0.0033659798       -0.0100142046
	             0.0012129699        0.0005989635        0.0001973112
	            -0.0015692322       -0.0021884666        0.0019181153
	            -0.0002751290        0.0003185005        0.0001698391
	            -0.0009076529        0.0014593881       -0.0020095345
	             0.0006060204       -0.0001004291        0.0010186943
	             0.0011343342       -0.0014566440        0.0002174864
	             0.0009990609        0.0003711458        0.0002759706
	            -0.0007205710        0.0003474774       -0.0001545787
	            -0.0001067881        0.0003995523       -0.0000423439
	            -0.0002575324        0.0002882667       -0.0001478564
	             0.0000444529       -0.0000670283       -0.0000788961

	---Fragment 1 Intrafragment Coordinates---
	 - Coordinate -           - BOHR/RAD -       - ANG/DEG -
	 H(3,5)           =         2.579017	       1.364757
	 H(6,10)          =         4.253405	       2.250805
	 R(1,2)           =         2.286484	       1.209955
	 R(1,3)           =         2.430673	       1.286257
	 R(1,4)           =         2.955737	       1.564108
	 R(4,5)           =         2.407231	       1.273852
	 R(4,6)           =         1.936873	       1.024949
	 R(4,7)           =         2.786479	       1.474541
	 R(7,8)           =         2.082386	       1.101951
	 R(7,9)           =         2.883874	       1.526081
	 R(7,13)          =         2.900142	       1.534689
	 R(9,10)          =         2.293313	       1.213569
	 R(9,11)          =         2.545517	       1.347030
	 R(11,12)         =         1.846307	       0.977023
	 R(13,14)         =         2.068811	       1.094768
	 R(13,15)         =         2.064295	       1.092378
	 R(13,16)         =         2.070180	       1.095492
	 B(1,4,5)         =         1.257109	      72.027063
	 B(1,4,6)         =         1.969407	     112.838728
	 B(1,4,7)         =         2.005377	     114.899651
	 B(2,1,3)         =         2.393227	     137.121793
	 B(2,1,4)         =         2.168427	     124.241701
	 B(3,1,4)         =         1.720061	      98.552220
	 B(4,7,8)         =         1.870764	     107.186900
	 B(4,7,9)         =         1.892488	     108.431552
	 B(4,7,13)        =         1.937474	     111.009062
	 B(5,4,6)         =         2.005638	     114.914602
	 B(5,4,7)         =         2.204667	     126.318137
	 B(6,4,7)         =         1.923281	     110.195895
	 B(7,9,10)        =         2.164996	     124.045161
	 B(7,9,11)        =         1.964939	     112.582730
	 B(7,13,14)       =         1.921435	     110.090142
	 B(7,13,15)       =         1.928505	     110.495170
	 B(7,13,16)       =         1.933172	     110.762570
	 B(8,7,9)         =         1.856492	     106.369184
	 B(8,7,13)        =         1.905260	     109.163330
	 B(9,7,13)        =         1.995766	     114.348956
	 B(9,11,12)       =         1.888480	     108.201926
	 B(10,9,11)       =         2.151971	     123.298877
	 B(14,13,15)      =         1.889063	     108.235333
	 B(14,13,16)      =         1.893298	     108.477986
	 B(15,13,16)      =         1.897356	     108.710506
	 D(1,4,7,8)       =         0.768868	      44.052914
	 D(1,4,7,9)       =         2.766541	     158.511124
	 D(1,4,7,13)      =        -1.310419	     -75.081456
	 D(2,1,4,5)       =         3.136369	     179.700708
	 D(2,1,4,6)       =         1.214473	      69.584154
	 D(2,1,4,7)       =        -1.010466	     -57.895464
	 D(3,1,4,5)       =         0.044248	       2.535241
	 D(3,1,4,6)       =        -1.877648	    -107.581313
	 D(3,1,4,7)       =         2.180598	     124.939068
	 D(4,7,9,10)      =        -0.207467	     -11.886983
	 D(4,7,9,11)      =         2.986967	     171.140581
	 D(4,7,13,14)     =         0.995593	      57.043304
	 D(4,7,13,15)     =         3.081263	     176.543372
	 D(4,7,13,16)     =        -1.098312	     -62.928664
	 D(5,4,7,8)       =         2.258567	     129.406358
	 D(5,4,7,9)       =        -2.026946	    -116.135432
	 D(5,4,7,13)      =         0.179280	      10.271988
	 D(6,4,7,8)       =        -1.479231	     -84.753687
	 D(6,4,7,9)       =         0.518442	      29.704523
	 D(6,4,7,13)      =         2.724667	     156.111943
	 D(7,9,11,12)     =         3.079637	     176.450185
	 D(8,7,9,10)      =         1.799550	     103.106614
	 D(8,7,9,11)      =        -1.289202	     -73.865823
	 D(8,7,13,14)     =        -1.062867	     -60.897803
	 D(8,7,13,15)     =         1.022802	      58.602264
	 D(8,7,13,16)     =         3.126412	     179.130229
	 D(9,7,13,14)     =        -3.139749	    -179.894340
	 D(9,7,13,15)     =        -1.054079	     -60.394273
	 D(9,7,13,16)     =         1.049531	      60.133691
	 D(10,9,7,13)     =        -2.379443	    -136.332043
	 D(10,9,11,12)    =        -0.009572	      -0.548434
	 D(11,9,7,13)     =         0.814991	      46.695520
	 R(3,13)          =         6.730371	       3.561559

	Current energy   :      -512.2846788854

	Energy change for the previous step:
		Projected    :        -0.0015574622
		Actual       :        -0.0012051683

	Performing Bofill update.
	Previous computed or guess Hessian on step 1.
	Steps to be used in Hessian update: 1
	Taking PRFO optimization step.
	Maximizing along 1 lowest eigenvalue of Hessian.

 RFO min eigenvalues
 -0.003091 -0.000000 -0.000000 -0.000000 -0.000000 -0.000000 -0.000000 -0.000000
 -0.000000 -0.000000 -0.000000 -0.000000 -0.000000 -0.000000 -0.000000  0.000000
  0.000000  0.000000  0.000000  0.000000  0.000000  0.000000  0.000000  0.000000
  0.000000  0.000000  0.000000  0.000000  0.000000  0.000000  0.000000  0.000000
  0.000000  0.000000  0.001847  0.003502  0.004629  0.005626  0.011319  0.013189
  0.024612  0.029740  0.036205  0.040959  0.047251  0.055052  0.056123  0.062799
  0.066320  0.086167  0.102845  0.134514  0.159903  0.159997  0.159999  0.160637
  0.196108  0.214025  0.217937  0.249972  0.253894  0.272214  0.297743  0.302357
  0.338389  0.339694  0.347299  0.347369  0.350558  0.441488  0.530586  0.577065
  0.722719  1.017359  1.062400

 RFO max eigenvalues
 -0.007502  0.003560
	Change in coordinate exceeds step limit of    0.50000.
	Scaling displacements by    0.65323
	|RFO target step|  :        0.5000000000
	RFO gradient       :        0.0006124486
	RFO hessian        :        0.0014951350
	Projected Delta(E) :        0.0003944929

	Back-transformation to cartesian coordinates...
	Successfully converged to displaced geometry.

	--- Internal Coordinate Step in ANG or DEG, aJ/ANG or AJ/DEG ---
	 ---------------------------------------------------------------------------
	   Coordinate                Previous        Force       Change         New 
	   ----------                --------       ------       ------       ------
	    1 H(3,5)          =      1.364757     0.030555    -0.035147     1.329610
	    2 H(6,10)         =      2.250805    -0.001844     0.009652     2.260457
	    3 R(1,2)          =      1.209955    -0.071265    -0.004394     1.205561
	    4 R(1,3)          =      1.286257    -0.038957     0.000197     1.286454
	    5 R(1,4)          =      1.564108     0.013963    -0.003467     1.560641
	    6 R(4,5)          =      1.273852    -0.119926     0.008402     1.282254
	    7 R(4,6)          =      1.024949     0.001523    -0.000074     1.024875
	    8 R(4,7)          =      1.474541     0.002541    -0.002892     1.471650
	    9 R(7,8)          =      1.101951    -0.001838    -0.000154     1.101797
	   10 R(7,9)          =      1.526081    -0.011166    -0.000645     1.525436
	   11 R(7,13)         =      1.534689    -0.010682    -0.000614     1.534075
	   12 R(9,10)         =      1.213569     0.001319    -0.000165     1.213404
	   13 R(9,11)         =      1.347030    -0.009312    -0.000371     1.346658
	   14 R(11,12)        =      0.977023    -0.005054    -0.000231     0.976792
	   15 R(13,14)        =      1.094768    -0.002055    -0.000271     1.094497
	   16 R(13,15)        =      1.092378     0.000591    -0.000274     1.092104
	   17 R(13,16)        =      1.095492    -0.000688    -0.000208     1.095284
	   18 B(1,4,5)        =     72.027063    -0.000071    -1.111356    70.915707
	   19 B(1,4,6)        =    112.838728    -0.000177     0.406306   113.245034
	   20 B(1,4,7)        =    114.899651     0.000236    -0.831726   114.067925
	   21 B(2,1,3)        =    137.121793     0.000212     0.466836   137.588629
	   22 B(2,1,4)        =    124.241701    -0.000191     0.270682   124.512384
	   23 B(3,1,4)        =     98.552220     0.000005    -0.700900    97.851320
	   24 B(4,7,8)        =    107.186900    -0.000014     0.241898   107.428798
	   25 B(4,7,9)        =    108.431552    -0.000021    -0.281226   108.150326
	   26 B(4,7,13)       =    111.009062     0.000055    -0.842211   110.166851
	   27 B(5,4,6)        =    114.914602    -0.000005     0.462823   115.377425
	   28 B(5,4,7)        =    126.318137    -0.000037     0.045179   126.363317
	   29 B(6,4,7)        =    110.195895     0.000023     0.376251   110.572145
	   30 B(7,9,10)       =    124.045161     0.000041    -0.602733   123.442428
	   31 B(7,9,11)       =    112.582730    -0.000153     0.223395   112.806125
	   32 B(7,13,14)      =    110.090142    -0.000030    -0.017255   110.072887
	   33 B(7,13,15)      =    110.495170    -0.000038     0.074613   110.569783
	   34 B(7,13,16)      =    110.762570     0.000020    -0.102775   110.659795
	   35 B(8,7,9)        =    106.369184     0.000005     0.472378   106.841563
	   36 B(8,7,13)       =    109.163330     0.000002     0.241066   109.404396
	   37 B(9,7,13)       =    114.348956    -0.000029     0.221338   114.570293
	   38 B(9,11,12)      =    108.201926    -0.000128    -0.317642   107.884284
	   39 B(10,9,11)      =    123.298877     0.000115     0.329217   123.628095
	   40 B(14,13,15)     =    108.235333     0.000033     0.020418   108.255751
	   41 B(14,13,16)     =    108.477986     0.000007     0.011415   108.489401
	   42 B(15,13,16)     =    108.710506     0.000010     0.015564   108.726070
	   43 D(1,4,7,8)      =     44.052914    -0.000003     2.637226    46.690140
	   44 D(1,4,7,9)      =    158.511124    -0.000005     3.170462   161.681586
	   45 D(1,4,7,13)     =    -75.081456    -0.000008     2.676421   -72.405035
	   46 D(2,1,4,5)      =    179.700708     0.000064     6.047886   185.748595
	   47 D(2,1,4,6)      =     69.584154     0.000063     5.984899    75.569053
	   48 D(2,1,4,7)      =    -57.895464     0.000044     5.824861   -52.070603
	   49 D(3,1,4,5)      =      2.535241    -0.000041     5.337416     7.872657
	   50 D(3,1,4,6)      =   -107.581313    -0.000042     5.274429  -102.306885
	   51 D(3,1,4,7)      =    124.939068    -0.000060     5.114391   130.053459
	   52 D(4,7,9,10)     =    -11.886983     0.000013    -9.127401   -21.014384
	   53 D(4,7,9,11)     =    171.140581    -0.000003    -8.243963   162.896618
	   54 D(4,7,13,14)    =     57.043304     0.000003    -3.937449    53.105856
	   55 D(4,7,13,15)    =    176.543372     0.000002    -3.875931   172.667441
	   56 D(4,7,13,16)    =    -62.928664     0.000002    -3.874767   -66.803431
	   57 D(5,4,7,8)      =    129.406358     0.000011     0.632629   130.038987
	   58 D(5,4,7,9)      =   -116.135432     0.000008     1.165865  -114.969567
	   59 D(5,4,7,13)     =     10.271988     0.000005     0.671824    10.943812
	   60 D(6,4,7,8)      =    -84.753687     0.000003     2.443821   -82.309866
	   61 D(6,4,7,9)      =     29.704523     0.000000     2.977057    32.681580
	   62 D(6,4,7,13)     =    156.111943    -0.000003     2.483015   158.594958
	   63 D(7,9,11,12)    =    176.450185     0.000008    -0.093785   176.356400
	   64 D(8,7,9,10)     =    103.106614     0.000008    -8.744515    94.362099
	   65 D(8,7,9,11)     =    -73.865823    -0.000008    -7.861077   -81.726899
	   66 D(8,7,13,14)    =    -60.897803    -0.000001    -3.879319   -64.777122
	   67 D(8,7,13,15)    =     58.602264    -0.000002    -3.817802    54.784463
	   68 D(8,7,13,16)    =    179.130229    -0.000002    -3.816637   175.313591
	   69 D(9,7,13,14)    =   -179.894340     0.000001    -4.803816  -184.698157
	   70 D(9,7,13,15)    =    -60.394273     0.000000    -4.742298   -65.136571
	   71 D(9,7,13,16)    =     60.133691     0.000000    -4.741134    55.392557
	   72 D(10,9,7,13)    =   -136.332043     0.000005    -7.967987  -144.300031
	   73 D(10,9,11,12)   =     -0.548434    -0.000006     0.824258     0.275824
	   74 D(11,9,7,13)    =     46.695520    -0.000010    -7.084549    39.610971
	   75 R(3,13)         =      3.561559     0.004531     0.012928     3.574486
	 ---------------------------------------------------------------------------
	Successfully symmetrized geometry.

  ==> Convergence Check <==

  Measures of convergence in internal coordinates in au.
  Criteria marked as inactive (o), active & met (*), and active & unmet ( ).
  ---------------------------------------------------------------------------------------------
   Step     Total Energy     Delta E     MAX Force     RMS Force      MAX Disp      RMS Disp   
  ---------------------------------------------------------------------------------------------
    Convergence Criteria    1.00e-06 *    3.00e-04 *             o    1.20e-03 *             o
  ---------------------------------------------------------------------------------------------
      2    -512.28467889   -1.21e-03      1.46e-02      2.40e-03 o    1.59e-01      5.78e-02 o  ~
  ---------------------------------------------------------------------------------------------

	Writing optimization data to binary file.
	Structure for next step:
	Cartesian Geometry (in Angstrom)
	    C    -2.0065912517  -0.1680823011   0.2271328833
	    O    -2.2815323318  -0.1157751481   1.3997579338
	    O    -2.6231578997  -0.0748419459  -0.8980851333
	    N    -0.5831277021  -0.4745216557  -0.3345146066
	    H    -1.3621469887  -0.1743103609  -1.3077447271
	    H    -0.3260683450  -1.4643274527  -0.2668924475
	    C     0.4792715002   0.3751780359   0.2267971398
	    H     0.3410327558   0.3976445876   1.3196571437
	    C     1.8195516220  -0.3044721900  -0.0352682847
	    O     1.9342403016  -1.4901996233  -0.2660222733
	    O     2.8649970164   0.5335812169   0.0996362672
	    H     3.6832603540   0.0149153884  -0.0250796250
	    C     0.3668036115   1.7999907311  -0.3305591602
	    H    -0.6459803397   2.1850261680  -0.1758344641
	    H     1.0674828258   2.4667875110   0.1765118136
	    H     0.5831630603   1.8131618098  -1.4041803097
			--------------------------
			 OPTKING Finished Execution 
			--------------------------

    Structure for next step:
    Molecular point group: c1
    Full point group: C1

    Geometry (in Angstrom), charge = 0, multiplicity = 1:

    C           -2.017287632286    -0.173468509642     0.226838641111
    O           -2.292228712358    -0.121161356685     1.399463691592
    O           -2.633854280343    -0.080228154502    -0.898379375532
    N           -0.593824082660    -0.479907864286    -0.334808848752
    H           -1.372843369282    -0.179696569427    -1.308038969274
    H           -0.336764725592    -1.469713661250    -0.267186689738
    C            0.468575119566     0.369791827331     0.226502897641
    H            0.330336375217     0.392258379001     1.319362901527
    C            1.808855241385    -0.309858398586    -0.035562526894
    O            1.923543921050    -1.495585831838    -0.266316515485
    O            2.854300635790     0.528195008291     0.099342024973
    H            3.672563973411     0.009529179827    -0.025373867199
    C            0.356107230912     1.794604522536    -0.330853402411
    H           -0.656676720340     2.179639959389    -0.176128706253
    H            1.056786445233     2.461401302389     0.176217571438
    H            0.572466679678     1.807775601238    -1.404474551891

gradient() will perform analytic gradient computation.

*** tstart() called on localhost.localdomain
*** at Tue Feb 12 14:35:38 2019

   => Loading Basis Set <=

    Name: 6-31+G*
    Role: ORBITAL
    Keyword: BASIS
    atoms 1, 7, 9, 13       entry C          line   119 file /root/psi4conda/share/psi4/basis/6-31pgs.gbs 
    atoms 2-3, 10-11        entry O          line   157 file /root/psi4conda/share/psi4/basis/6-31pgs.gbs 
    atoms 4                 entry N          line   138 file /root/psi4conda/share/psi4/basis/6-31pgs.gbs 
    atoms 5-6, 8, 12, 14-16 entry H          line    46 file /root/psi4conda/share/psi4/basis/6-31pgs.gbs 


         ---------------------------------------------------------
                                   SCF
            by Justin Turney, Rob Parrish, Andy Simmonett
                             and Daniel Smith
                              RKS Reference
                       16 Threads,    500 MiB Core
         ---------------------------------------------------------

  ==> Geometry <==

    Molecular point group: c1
    Full point group: C1

    Geometry (in Angstrom), charge = 0, multiplicity = 1:

       Center              X                  Y                   Z               Mass       
    ------------   -----------------  -----------------  -----------------  -----------------
         C           -2.017287632286    -0.173468509642     0.226838641111    12.000000000000
         O           -2.292228712358    -0.121161356685     1.399463691592    15.994914619560
         O           -2.633854280343    -0.080228154502    -0.898379375532    15.994914619560
         N           -0.593824082660    -0.479907864286    -0.334808848752    14.003074004780
         H           -1.372843369282    -0.179696569427    -1.308038969274     1.007825032070
         H           -0.336764725592    -1.469713661250    -0.267186689738     1.007825032070
         C            0.468575119566     0.369791827331     0.226502897641    12.000000000000
         H            0.330336375217     0.392258379001     1.319362901527     1.007825032070
         C            1.808855241385    -0.309858398586    -0.035562526894    12.000000000000
         O            1.923543921050    -1.495585831838    -0.266316515485    15.994914619560
         O            2.854300635790     0.528195008291     0.099342024973    15.994914619560
         H            3.672563973411     0.009529179827    -0.025373867199     1.007825032070
[...]
	 H           2.2565904642        4.6355951399       -0.4107359943
	 H           0.9840319873        3.1656123660       -3.1536093702
	            -0.0001313118       -0.0000044655        0.0000096059
	             0.0000275874        0.0000240545        0.0000268189
	             0.0000806827       -0.0000119344        0.0000836341
	            -0.0000220422       -0.0000660686       -0.0000967777
	             0.0000811703        0.0000116104        0.0000128805
	            -0.0000289331        0.0000164805       -0.0000097721
	            -0.0000190866        0.0000396154        0.0000644277
	            -0.0000104997       -0.0000001618       -0.0000071886
	            -0.0001138426       -0.0000463443        0.0000017448
	             0.0000832210        0.0000644227        0.0000017120
	             0.0000317012       -0.0000293752       -0.0000588816
	             0.0000407575        0.0000094734        0.0000272413
	             0.0000248102        0.0000178736       -0.0000104795
	            -0.0000098024       -0.0000031392       -0.0000012962
	            -0.0000125013        0.0000049822        0.0000053413
	             0.0000051009       -0.0000040579        0.0000027993

	---Fragment 1 Intrafragment Coordinates---
	 - Coordinate -           - BOHR/RAD -       - ANG/DEG -
	 H(3,5)           =         2.444375	       1.293507
	 H(6,10)          =         4.197120	       2.221020
	 R(1,2)           =         2.273580	       1.203127
	 R(1,3)           =         2.439617	       1.290989
	 R(1,4)           =         2.937846	       1.554641
	 R(4,5)           =         2.459820	       1.301681
	 R(4,6)           =         1.937971	       1.025530
	 R(4,7)           =         2.784335	       1.473407
	 R(7,8)           =         2.082417	       1.101968
	 R(7,9)           =         2.880230	       1.524152
	 R(7,13)          =         2.896827	       1.532935
	 R(9,10)          =         2.293519	       1.213678
	 R(9,11)          =         2.544935	       1.346722
	 R(11,12)         =         1.845509	       0.976601
	 R(13,14)         =         2.068684	       1.094700
	 R(13,15)         =         2.064530	       1.092502
	 R(13,16)         =         2.069749	       1.095264
	 B(1,4,5)         =         1.223013	      70.073473
	 B(1,4,6)         =         1.942095	     111.273821
	 B(1,4,7)         =         2.030058	     116.313734
	 B(2,1,3)         =         2.393381	     137.130658
	 B(2,1,4)         =         2.179308	     124.865126
	 B(3,1,4)         =         1.709719	      97.959705
	 B(4,7,8)         =         1.874854	     107.421233
	 B(4,7,9)         =         1.889299	     108.248845
	 B(4,7,13)        =         1.944344	     111.402729
	 B(5,4,6)         =         1.964729	     112.570688
	 B(5,4,7)         =         2.271622	     130.154365
	 B(6,4,7)         =         1.917901	     109.887632
	 B(7,9,10)        =         2.169595	     124.308624
	 B(7,9,11)        =         1.959023	     112.243756
	 B(7,13,14)       =         1.916516	     109.808301
	 B(7,13,15)       =         1.927145	     110.417299
	 B(7,13,16)       =         1.934853	     110.858914
	 B(8,7,9)         =         1.855194	     106.294793
	 B(8,7,13)        =         1.905304	     109.165879
	 B(9,7,13)        =         1.989509	     113.990483
	 B(9,11,12)       =         1.880443	     107.741443
	 B(10,9,11)       =         2.154083	     123.419891
	 B(14,13,15)      =         1.891053	     108.349351
	 B(14,13,16)      =         1.894045	     108.520798
	 B(15,13,16)      =         1.899331	     108.823667
	 D(1,4,7,8)       =         0.692903	      39.700444
	 D(1,4,7,9)       =         2.689563	     154.100583
	 D(1,4,7,13)      =        -1.392926	     -79.808771
	 D(2,1,4,5)       =        -3.040457	    -174.205335
	 D(2,1,4,6)       =         1.370413	      78.518893
	 D(2,1,4,7)       =        -0.843634	     -48.336696
	 D(3,1,4,5)       =         0.065075	       3.728500
	 D(3,1,4,6)       =        -1.807241	    -103.547272
	 D(3,1,4,7)       =         2.261897	     129.597139
	 D(4,7,9,10)      =        -0.178046	     -10.201267
	 D(4,7,9,11)      =         2.996053	     171.661164
	 D(4,7,13,14)     =         0.999394	      57.261056
	 D(4,7,13,15)     =         3.083559	     176.674909
	 D(4,7,13,16)     =        -1.093329	     -62.643144
	 D(5,4,7,8)       =         2.183390	     125.099022
	 D(5,4,7,9)       =        -2.103136	    -120.500839
	 D(5,4,7,13)      =         0.097561	       5.589807
	 D(6,4,7,8)       =        -1.533114	     -87.840945
	 D(6,4,7,9)       =         0.463545	      26.559194
	 D(6,4,7,13)      =         2.664242	     152.649841
	 D(7,9,11,12)     =         3.093472	     177.242875
	 D(8,7,9,10)      =         1.831524	     104.938623
	 D(8,7,9,11)      =        -1.277563	     -73.198946
	 D(8,7,13,14)     =        -1.068265	     -61.207103
	 D(8,7,13,15)     =         1.015899	      58.206750
	 D(8,7,13,16)     =         3.122197	     178.888697
	 D(9,7,13,14)     =        -3.139500	    -179.880081
	 D(9,7,13,15)     =        -1.055335	     -60.466228
	 D(9,7,13,16)     =         1.050963	      60.215719
	 D(10,9,7,13)     =        -2.352087	    -134.764685
	 D(10,9,11,12)    =        -0.015952	      -0.913987
	 D(11,9,7,13)     =         0.822011	      47.097747
	 R(3,13)          =         6.951649	       3.678654

	Current energy   :      -512.2846628339

	Energy change for the previous step:
		Projected    :        -0.0000011074
		Actual       :        -0.0000008859

	Performing Bofill update.
	Previous computed or guess Hessian on step 1.
	Steps to be used in Hessian update: 23 22
	Taking PRFO optimization step.
	Maximizing along 1 lowest eigenvalue of Hessian.

 RFO min eigenvalues
 -0.000001 -0.000000 -0.000000 -0.000000 -0.000000 -0.000000 -0.000000 -0.000000
 -0.000000 -0.000000 -0.000000 -0.000000 -0.000000 -0.000000 -0.000000 -0.000000
 -0.000000 -0.000000  0.000000  0.000000  0.000000  0.000000  0.000000  0.000000
  0.000000  0.000000  0.000000  0.000000  0.000000  0.000000  0.000000  0.000000
  0.000000  0.000000  0.000968  0.001677  0.003034  0.006795  0.015016  0.024578
  0.031345  0.040713  0.045324  0.049571  0.055077  0.056172  0.057270  0.062398
  0.090451  0.099060  0.129223  0.139492  0.160032  0.160218  0.160701  0.165059
  0.194851  0.211461  0.247754  0.252068  0.265605  0.294867  0.303666  0.318214
  0.339715  0.347303  0.347473  0.349210  0.351158  0.441394  0.531443  0.577490
  0.737604  1.017511  1.063113

 RFO max eigenvalues
 -0.038377  0.000000
	|RFO target step|  :        0.0258291242
	RFO gradient       :       -0.0000416454
	RFO hessian        :        0.0016112031
	Projected Delta(E) :       -0.0000005379

	Back-transformation to cartesian coordinates...
	Successfully converged to displaced geometry.

	--- Internal Coordinate Step in ANG or DEG, aJ/ANG or AJ/DEG ---
	 ---------------------------------------------------------------------------
	   Coordinate                Previous        Force       Change         New 
	   ----------                --------       ------       ------       ------
	    1 H(3,5)          =      1.293507    -0.000260    -0.000399     1.293109
	    2 H(6,10)         =      2.221020    -0.000274    -0.000381     2.220639
	    3 R(1,2)          =      1.203127    -0.000149    -0.000037     1.203089
	    4 R(1,3)          =      1.290989     0.000853     0.000124     1.291114
	    5 R(1,4)          =      1.554641    -0.000434    -0.000146     1.554495
	    6 R(4,5)          =      1.301681     0.000389     0.000028     1.301708
	    7 R(4,6)          =      1.025530     0.000128     0.000019     1.025549
	    8 R(4,7)          =      1.473407    -0.000177    -0.000035     1.473372
	    9 R(7,8)          =      1.101968     0.000073    -0.000007     1.101961
	   10 R(7,9)          =      1.524152    -0.000086    -0.000107     1.524045
	   11 R(7,13)         =      1.532935    -0.000177    -0.000019     1.532916
	   12 R(9,10)         =      1.213678     0.000476     0.000052     1.213730
	   13 R(9,11)         =      1.346722    -0.000270    -0.000077     1.346645
	   14 R(11,12)        =      0.976601    -0.000213    -0.000068     0.976533
	   15 R(13,14)        =      1.094700    -0.000045    -0.000020     1.094680
	   16 R(13,15)        =      1.092502     0.000043     0.000021     1.092524
	   17 R(13,16)        =      1.095264    -0.000003    -0.000000     1.095264
	   18 B(1,4,5)        =     70.073473    -0.000004    -0.023923    70.049550
	   19 B(1,4,6)        =    111.273821    -0.000001    -0.004751   111.269070
	   20 B(1,4,7)        =    116.313734     0.000004     0.042779   116.356512
	   21 B(2,1,3)        =    137.130658    -0.000004    -0.012453   137.118205
	   22 B(2,1,4)        =    124.865126    -0.000000     0.004435   124.869562
	   23 B(3,1,4)        =     97.959705     0.000004     0.008946    97.968650
	   24 B(4,7,8)        =    107.421233     0.000001     0.022138   107.443371
	   25 B(4,7,9)        =    108.248845     0.000002     0.004440   108.253286
	   26 B(4,7,13)       =    111.402729    -0.000003    -0.015179   111.387551
	   27 B(5,4,6)        =    112.570688    -0.000000    -0.021090   112.549599
	   28 B(5,4,7)        =    130.154365     0.000002     0.016912   130.171278
	   29 B(6,4,7)        =    109.887632    -0.000001    -0.007118   109.880514
	   30 B(7,9,10)       =    124.308624    -0.000003    -0.022558   124.286066
	   31 B(7,9,11)       =    112.243756    -0.000003    -0.025381   112.218375
	   32 B(7,13,14)      =    109.808301     0.000000     0.004350   109.812651
	   33 B(7,13,15)      =    110.417299    -0.000000     0.001748   110.419047
	   34 B(7,13,16)      =    110.858914     0.000001    -0.012856   110.846059
	   35 B(8,7,9)        =    106.294793    -0.000001     0.001359   106.296152
	   36 B(8,7,13)       =    109.165879     0.000000    -0.002583   109.163297
	   37 B(9,7,13)       =    113.990483     0.000001    -0.007464   113.983019
	   38 B(9,11,12)      =    107.741443    -0.000004    -0.037567   107.703876
	   39 B(10,9,11)      =    123.419891     0.000006     0.047365   123.467256
	   40 B(14,13,15)     =    108.349351     0.000000     0.000858   108.350208
	   41 B(14,13,16)     =    108.520798    -0.000000     0.001045   108.521843
	   42 B(15,13,16)     =    108.823667    -0.000000     0.005143   108.828810
	   43 D(1,4,7,8)      =     39.700444     0.000000     0.009732    39.710176
	   44 D(1,4,7,9)      =    154.100583     0.000000     0.024680   154.125263
	   45 D(1,4,7,13)     =    -79.808771     0.000000     0.007829   -79.800942
	   46 D(2,1,4,5)      =   -174.205335    -0.000000     0.006766  -174.198570
	   47 D(2,1,4,6)      =     78.518893    -0.000000     0.035873    78.554766
	   48 D(2,1,4,7)      =    -48.336696    -0.000000     0.013522   -48.323174
	   49 D(3,1,4,5)      =      3.728500    -0.000000     0.028097     3.756597
	   50 D(3,1,4,6)      =   -103.547272     0.000000     0.057204  -103.490068
	   51 D(3,1,4,7)      =    129.597139    -0.000000     0.034853   129.631992
	   52 D(4,7,9,10)     =    -10.201267    -0.000000     0.277248    -9.924019
	   53 D(4,7,9,11)     =    171.661164    -0.000000     0.295484   171.956647
	   54 D(4,7,13,14)    =     57.261056    -0.000000     0.419611    57.680667
	   55 D(4,7,13,15)    =    176.674909    -0.000000     0.424503   177.099412
	   56 D(4,7,13,16)    =    -62.643144    -0.000000     0.423656   -62.219488
	   57 D(5,4,7,8)      =    125.099022    -0.000000     0.018559   125.117581
	   58 D(5,4,7,9)      =   -120.500839    -0.000000     0.033506  -120.467332
	   59 D(5,4,7,13)     =      5.589807     0.000000     0.016656     5.606463
	   60 D(6,4,7,8)      =    -87.840945     0.000000    -0.013013   -87.853958
	   61 D(6,4,7,9)      =     26.559194     0.000000     0.001935    26.561129
	   62 D(6,4,7,13)     =    152.649841     0.000000    -0.014916   152.634925
	   63 D(7,9,11,12)    =    177.242875     0.000000     0.178834   177.421708
	   64 D(8,7,9,10)     =    104.938623     0.000000     0.305650   105.244273
	   65 D(8,7,9,11)     =    -73.198946     0.000000     0.323886   -72.875060
	   66 D(8,7,13,14)    =    -61.207103     0.000000     0.403155   -60.803949
	   67 D(8,7,13,15)    =     58.206750     0.000000     0.408046    58.614796
	   68 D(8,7,13,16)    =    178.888697     0.000000     0.407200   179.295897
	   69 D(9,7,13,14)    =   -179.880081     0.000000     0.408006  -179.472075
	   70 D(9,7,13,15)    =    -60.466228     0.000000     0.412897   -60.053330
	   71 D(9,7,13,16)    =     60.215719     0.000000     0.412051    60.627770
	   72 D(10,9,7,13)    =   -134.764685     0.000000     0.298893  -134.465792
	   73 D(10,9,11,12)   =     -0.913987     0.000000     0.198397    -0.715590
	   74 D(11,9,7,13)    =     47.097747     0.000000     0.317128    47.414875
	   75 R(3,13)         =      3.678654     0.000154     0.000709     3.679363
	 ---------------------------------------------------------------------------
	Successfully symmetrized geometry.

  ==> Convergence Check <==

  Measures of convergence in internal coordinates in au.
  Criteria marked as inactive (o), active & met (*), and active & unmet ( ).
  ---------------------------------------------------------------------------------------------
   Step     Total Energy     Delta E     MAX Force     RMS Force      MAX Disp      RMS Disp   
  ---------------------------------------------------------------------------------------------
    Convergence Criteria    1.00e-06 *    3.00e-04 *             o    1.20e-03 *             o
  ---------------------------------------------------------------------------------------------
     24    -512.28466283   -8.86e-07 *    1.04e-04 *    2.79e-05 o    7.41e-03      2.98e-03 o  ~
  ---------------------------------------------------------------------------------------------


  **** Optimization is complete! (in 24 steps) ****

  ==> Optimization Summary <==

  Measures of convergence in internal coordinates in au.
  --------------------------------------------------------------------------------------------------------------- ~
   Step         Total Energy             Delta E       MAX Force       RMS Force        MAX Disp        RMS Disp  ~
  --------------------------------------------------------------------------------------------------------------- ~
      1    -512.283473717135   -512.283473717135      0.01416340      0.00343369      0.11782641      0.03351911  ~
      2    -512.284678885443     -0.001205168307      0.01455633      0.00239813      0.15930320      0.05777154  ~
      3    -512.283385114200      0.001293771243      0.00968172      0.00224271      0.22693952      0.05772998  ~
      4    -512.288224618302     -0.004839504102      0.02672829      0.00388004      0.17637575      0.05774011  ~
      5    -512.286389348803      0.001835269499      0.02830501      0.00535087      0.19044466      0.05762261  ~
      6    -512.284627706994      0.001761641809      0.01285167      0.00301482      0.15057448      0.05747187  ~
      7    -512.282015207801      0.002612499192      0.00866293      0.00229602      0.14260536      0.04087284  ~
      8    -512.283965677616     -0.001950469815      0.00598827      0.00112109      0.04351830      0.01833395  ~
      9    -512.284339662290     -0.000373984674      0.00485860      0.00076650      0.10107218      0.03490966  ~
     10    -512.284506643786     -0.000166981496      0.00125294      0.00039259      0.02924341      0.01041868  ~
     11    -512.284548480048     -0.000041836262      0.00194672      0.00045167      0.15886625      0.05775707  ~
     12    -512.283591360552      0.000957119496      0.01017222      0.00276842      0.15339888      0.05772578  ~
     13    -512.283352378123      0.000238982429      0.01053346      0.00290579      0.10091872      0.03306381  ~
     14    -512.283999704439     -0.000647326315      0.00615281      0.00169939      0.17011089      0.05779842  ~
     15    -512.284231310037     -0.000231605598      0.00482400      0.00137324      0.13479430      0.05775107  ~
     16    -512.284557445152     -0.000326135115      0.00296642      0.00068362      0.08856013      0.03897708  ~
     17    -512.284514170398      0.000043274754      0.00317283      0.00086324      0.07817194      0.02867983  ~
     18    -512.284645480834     -0.000131310437      0.00092682      0.00022571      0.13717420      0.05774586  ~
     19    -512.284368558058      0.000276922777      0.00301848      0.00094659      0.09068141      0.03975476  ~
     20    -512.284624202125     -0.000255644068      0.00051809      0.00017428      0.04782940      0.02033705  ~
     21    -512.284655430312     -0.000031228187      0.00043135      0.00011987      0.00460162      0.00182606  ~
     22    -512.284659503946     -0.000004073633      0.00018922      0.00005286      0.03018409      0.00667864  ~
     23    -512.284661948018     -0.000002444072      0.00053718      0.00011988      0.00475301      0.00174966  ~
     24    -512.284662833901     -0.000000885883      0.00010354      0.00002790      0.00740897      0.00298263  ~
  --------------------------------------------------------------------------------------------------------------- ~

	Writing optimization data to binary file.
	Final energy is   -512.2846628339007
	Final (previous) structure:
	Cartesian Geometry (in Angstrom)
	    C    -2.0052177696  -0.1992377680   0.3651708139
	    O    -2.1832673017  -0.0714826500   1.5481714829
	    O    -2.7177760876  -0.1463466665  -0.7100580190
	    N    -0.6245033540  -0.4504969181  -0.3037127062
	    H    -1.5351992205  -0.2773582821  -1.2175115522
	    H    -0.3398924709  -1.4315138145  -0.2125282297
	    C     0.4766215246   0.4322657101   0.1195859435
	    H     0.3790008168   0.5833824988   1.2067687590
	    C     1.7912658903  -0.3091183087  -0.0927791388
	    O     1.8749972830  -1.4883674758  -0.3673232655
	    O     2.8614501997   0.4857558356   0.0983750817
	    H     3.6624194608  -0.0624029365  -0.0098833076
	    C     0.4066152351   1.7914926976  -0.5857435092
	    H    -0.5609277123   2.2633152521  -0.3867133841
	    H     1.1941362428   2.4530512963  -0.2173521270
	    H     0.5207273002   1.6751699153  -1.6688182035
	Saving final (previous) structure.
	Removing binary optimization data file.
			--------------------------
			 OPTKING Finished Execution 
			--------------------------

    Final optimized geometry and variables:
    Molecular point group: c1
    Full point group: C1

    Geometry (in Angstrom), charge = 0, multiplicity = 1:

    C           -2.005217769593    -0.199237767993     0.365170813877
    O           -2.183267301723    -0.071482649957     1.548171482950
    O           -2.717776087611    -0.146346666465    -0.710058018997
    N           -0.624503354044    -0.450496918147    -0.303712706182
    H           -1.535199220469    -0.277358282065    -1.217511552159
    H           -0.339892470928    -1.431513814489    -0.212528229693
    C            0.476621524553     0.432265710128     0.119585943527
    H            0.379000816751     0.583382498823     1.206768758991
    C            1.791265890324    -0.309118308705    -0.092779138810
    O            1.874997282961    -1.488367475796    -0.367323265466
    O            2.861450199697     0.485755835615     0.098375081742
    H            3.662419460785    -0.062402936520    -0.009883307599
    C            0.406615235091     1.791492697625    -0.585743509235
    H           -0.560927712260     2.263315252141    -0.386713384136
    H            1.194136242771     2.453051296298    -0.217352126953
    H            0.520727300219     1.675169915320    -1.668818203510

	Removing binary optimization data file.
	Cleaning optimization helper files.

    Psi4 stopped on: Tuesday, 12 February 2019 02:40PM
    Psi4 wall time for execution: 0:05:17.71

*** Psi4 exiting successfully. Buy a developer a beer!
