[Molden Format]

[FREQ]
       -1405.9174332099
          68.9320273768
          89.8821563905
         159.5838690663
         196.0741479750
         204.2180089525
         240.0197457345
         265.9926275710
         277.6130068882
         327.5991713553
         372.5152964983
         438.3109393962
         639.7486935329
         707.8642888768
         757.7828330034
         825.1296844880
         867.6857457230
        1026.4809643761
        1090.3422244578
        1138.0795294710
        1186.3387547434
        1237.3847139888
        1266.1426224742
        1357.4381141344
        1462.7418705229
        1491.4793703986
        1503.6533614497
        1510.0300845968
        2208.3489015320
        3007.9945947695
        3076.8016574289
        3168.3527218624
        3195.6708171256

[FR-COORD]
C          0.0769702705       -0.1124983116       -2.2177482155
O         -1.9197679458       -0.5265639261       -3.5643914611
CL         2.6903842129        0.7199384291        2.1155363275
CL        -2.8118490764        0.6147937734        2.0078880206
H          1.4686443623        6.0019626758       -4.2114590086
C          2.0528857271        4.0772564009       -3.7879678393
H          2.4893309366        3.0549935403       -5.5277910502
H          3.6791675034        4.0952111405       -2.5291180034
O          0.0035623370        2.8758699081       -2.4849424479
H         -1.6260069626        2.0688092300       -3.6115282550
C         -0.0362535822       -0.6370035067        0.6623015505
CL         0.0499175247       -3.9699806016        1.0187927981
H          1.9547751220       -0.6930486303       -2.9109451578

[FR-NORM-COORD]
vibration 1
          -0.0568749279       -0.0815555400       -0.0317676760
           0.0252498172       -0.0476823545        0.0205503554
           0.0003501992        0.0005611795       -0.0001787226
          -0.0002654504        0.0001505236        0.0004365711
           0.0304740223        0.0188150653       -0.0172497503
           0.0011051432        0.0135091473       -0.0112459857
          -0.0061514878       -0.0149777515        0.0087839597
          -0.0327200663       -0.0206430295        0.0230425862
          -0.0095241786        0.0402327591       -0.0033598899
           0.4214768354        0.8782963936        0.1666538188
          -0.0027779080       -0.0014169320        0.0023118602
           0.0004516826        0.0002053838        0.0006258772
           0.0158480029        0.0520072350       -0.0000893324
vibration 2
          -0.0697546843        0.0393101387        0.0155255450
          -0.1346781479        0.1753819825        0.0661273370
          -0.0647543700        0.0703093196        0.0258869110
          -0.0590144215       -0.1013951516        0.0430543207
           0.3867704272       -0.1135625941       -0.0622938716
           0.1606433011       -0.2049221834       -0.1675095758
          -0.1725864539       -0.2296198774       -0.2366251122
           0.3021046384       -0.4599361912       -0.3461716393
           0.1344427057        0.0407122529        0.0221915654
           0.0241898351        0.1577926478        0.0976649817
          -0.0259973620        0.0139519790        0.0130361947
           0.0896999829        0.0053842408       -0.0448870884
          -0.1272936623       -0.0866789241       -0.0344462507
vibration 3
          -0.0865398679       -0.0436502552       -0.0318835595
          -0.1152093251        0.0156727395       -0.0040349057
          -0.0090907171        0.0579135333       -0.1228623766
          -0.0147352408       -0.0256415534        0.0195033027
           0.1631732189       -0.0367180155        0.0851819866
           0.1784102504        0.0051900741        0.2551968158
           0.5499460111       -0.0285574076        0.3688380475
          -0.0526729518        0.1243085166        0.5506791697
           0.0095847828       -0.0476549611       -0.0647805911
           0.0445226413       -0.0001901540       -0.1479995105
          -0.0342523722       -0.0096491613       -0.0256808817
           0.0353360913        0.0002434871        0.0439928733
          -0.1140496311       -0.1066325436       -0.0578731142
vibration 4
           0.0033215582       -0.0209268199       -0.0298775589
          -0.0286675760        0.0989219639       -0.0219359513
           0.0237887837       -0.0115223416       -0.0841308579
          -0.0200628665       -0.0102886454       -0.1221076878
           0.0587670039        0.1853895160        0.5119304489
          -0.0541543605        0.0491580378        0.0496242276
          -0.4473465324        0.3352248553       -0.2175190264
           0.1601643253       -0.3406692078       -0.2211894996
           0.0439814952        0.0038010801        0.1581381039
          -0.0396808480        0.0819204082        0.1973055103
           0.0110623994       -0.0466285054       -0.0294417583
           0.0112862494       -0.0252759443        0.1417021275
          -0.0222899037       -0.0393099778       -0.0774743084
vibration 5
          -0.0122765248        0.0069538509        0.0043723528
          -0.0676831129        0.0858845644        0.0617828475
           0.0166103335       -0.0472907200        0.0171737925
          -0.0176237810       -0.0117888175       -0.0715960507
          -0.2846739509       -0.1383983476       -0.5532795033
          -0.0246240158        0.0460532508       -0.0695514806
           0.2801304407       -0.2696784545        0.1917073100
          -0.1329647073        0.5754732091        0.0629947459
           0.0430055415        0.0326000992        0.0203836137
          -0.0169929777        0.0493846573        0.0776935887
           0.0147376807       -0.0137311588        0.0012415507
           0.0256598263       -0.0140174908        0.0466152845
          -0.0451223660       -0.0285977811       -0.0509824752
vibration 6
           0.0949990402        0.0579974024        0.0110283401
           0.2588434219        0.0810545274       -0.2329899547
           0.0084412908        0.0615787642       -0.1673988856
          -0.0422327814       -0.1475585309        0.1657923296
          -0.1621512076       -0.1538261993       -0.5224116603
          -0.0070207050       -0.0145676308       -0.1017930563
           0.0813205256       -0.3480729247        0.1143789267
          -0.0135725943        0.3821127272       -0.0995556184
           0.0682640127        0.0892785306        0.1197204635
           0.1091393916        0.0466171575        0.0434649687
          -0.0535855669       -0.0134674574        0.0082882615
          -0.1330354793       -0.0036051536        0.0901238383
           0.1727756244        0.1214627334        0.1725107569
vibration 7
          -0.0043850094       -0.0050159080        0.0515309252
           0.0448889250       -0.0219103774       -0.0212126873
          -0.0089133592        0.0609580454       -0.0428917616
           0.0165903713        0.1070585264       -0.0611452893
          -0.0514583036       -0.3462839147       -0.2666801555
          -0.0644905647       -0.2639242251        0.1171850609
          -0.0412183234       -0.6036816840        0.3215926546
          -0.0885149630       -0.0394026523        0.1440093998
          -0.0724346052       -0.0387999492        0.2936459295
          -0.0765675874        0.0467334007        0.2668432427
          -0.0037998409       -0.0200212131        0.0087337421
           0.0366887929       -0.0157769038       -0.0967324059
           0.0208871930        0.0644527746        0.0638251702
vibration 8
           0.0822319553       -0.1644782314        0.0089590276
          -0.0761201098       -0.0098241698        0.1956804937
          -0.0780089681        0.2585109523        0.0038334619
           0.1487149814       -0.0339461973       -0.0247356704
          -0.3892456234        0.0828830634        0.0560558998
          -0.0305266462        0.1701214394       -0.0312438309
           0.0191854466        0.2948463563       -0.0918214189
           0.0537166596        0.4224156671       -0.1433208227
           0.2298324855       -0.1517323115        0.0705796542
           0.0421424919       -0.0495009134        0.2462690162
           0.0977368120       -0.0860661936        0.0009072021
          -0.1841262294       -0.1355732151       -0.0924367117
          -0.0093273058       -0.3168130138       -0.1058254086
vibration 9
           0.0759568392        0.1012047856        0.2036349492
           0.0128449034       -0.1721453537        0.4028916388
           0.3664129258        0.0785468166       -0.0531469672
          -0.2041733487       -0.2499689080       -0.1823904194
           0.2713281521       -0.0366300490        0.0946766664
           0.0487416157       -0.1072722417        0.0709646952
           0.0097102133       -0.1220848152        0.0710771263
           0.0044713717       -0.3122535328        0.1310075582
          -0.0929201920        0.0441085958       -0.0086553146
          -0.0296063862       -0.0869452318        0.0376387849
           0.1238631414        0.1534719942        0.1277689599
          -0.2206003949        0.1897997388       -0.0962739436
           0.0803346641        0.1971737407        0.1308214143
















































































































































































































































































































































