
    -----------------------------------------------------------------------
          Psi4: An Open-Source Ab Initio Electronic Structure Package
                               Psi4 1.2.1 release

                         Git: Rev {HEAD} 406f4de 


    R. M. Parrish, L. A. Burns, D. G. A. Smith, A. C. Simmonett,
    A. E. DePrince III, E. G. Hohenstein, U. Bozkaya, A. Yu. Sokolov,
    R. Di Remigio, R. M. Richard, J. F. Gonthier, A. M. James,
    H. R. McAlexander, A. Kumar, M. Saitow, X. Wang, B. P. Pritchard,
    P. Verma, H. F. Schaefer III, K. Patkowski, R. A. King, E. F. Valeev,
    F. A. Evangelista, J. M. Turney, T. D. Crawford, and C. D. Sherrill,
    J. Chem. Theory Comput. 13(7) pp 3185--3197 (2017).
    (doi: 10.1021/acs.jctc.7b00174)


                         Additional Contributions by
    P. Kraus, H. Kruse, M. H. Lechner, M. C. Schieber, and R. A. Shaw

    -----------------------------------------------------------------------


    Psi4 started on: Tuesday, 19 March 2019 01:17PM

    Process ID: 9769
    Host:       localhost.localdomain
    PSIDATADIR: /root/psi4conda/share/psi4
    Memory:     500.0 MiB
    Threads:    1
    
  ==> Input File <==

--------------------------------------------------------------------------
molecule{
0 1
 C    0.132149780019    0.464485552988   -1.555878749644
 O   -0.941538170037    0.112932105438   -2.353711474141
BR    1.580303840692    0.457103442135    0.884356510981
BR   -1.602541917447    0.645810589267    0.721554292461
 H    1.140720803636    3.486733344777   -2.249388538373
 C    1.333818205297    2.417379765118   -2.195322164853
 H    1.390460659622    2.009151699788   -3.208456461089
 H    2.275891032237    2.242828091473   -1.667409556590
 O    0.250490274042    1.846086645691   -1.476450587128
 H   -1.676644631136    0.689748904733   -2.116760962932
 C   -0.004930192026   -0.088475487599   -0.100349261761
BR   -0.112904552015   -2.032262310533   -0.100618731432
 H    1.023100748149   -0.006757017467   -1.983573773920 
}

basis {
  assign 6-311ppgss
  assign Br def2-tzvpp
}

set{
   freeze_core True
}


set_num_threads(32)
optimize('m06-2x')
--------------------------------------------------------------------------
  Threads set to 32 by Python driver.
gradient() will perform analytic gradient computation.

*** tstart() called on localhost.localdomain
*** at Tue Mar 19 13:17:35 2019

   => Loading Basis Set <=

    Name: ANONYMOUS58475730
    Role: ORBITAL
    Keyword: BASIS
    atoms 1, 6, 11       entry C          line   119 file /root/psi4conda/share/psi4/basis/6-311ppgss.gbs 
    atoms 2, 9           entry O          line   161 file /root/psi4conda/share/psi4/basis/6-311ppgss.gbs 
    atoms 3-4, 12        entry BR         line  1545 file /root/psi4conda/share/psi4/basis/def2-tzvpp.gbs 
    atoms 5, 7-8, 10, 13 entry H          line    42 file /root/psi4conda/share/psi4/basis/6-311ppgss.gbs 


         ---------------------------------------------------------
                                   SCF
            by Justin Turney, Rob Parrish, Andy Simmonett
                             and Daniel Smith
                              RKS Reference
                       32 Threads,    500 MiB Core
         ---------------------------------------------------------

  ==> Geometry <==

    Molecular point group: c1
    Full point group: C1

    Geometry (in Angstrom), charge = 0, multiplicity = 1:

       Center              X                  Y                   Z               Mass       
    ------------   -----------------  -----------------  -----------------  -----------------
         C            0.132149780019     0.464485552988    -1.555878749644    12.000000000000
         O           -0.941538170037     0.112932105438    -2.353711474141    15.994914619560
         BR           1.580303840692     0.457103442135     0.884356510981    78.918337087000
         BR          -1.602541917447     0.645810589267     0.721554292461    78.918337087000
         H            1.140720803636     3.486733344777    -2.249388538373     1.007825032070
         C            1.333818205297     2.417379765118    -2.195322164853    12.000000000000
         H            1.390460659622     2.009151699788    -3.208456461089     1.007825032070
         H            2.275891032237     2.242828091473    -1.667409556590     1.007825032070
         O            0.250490274042     1.846086645691    -1.476450587128    15.994914619560
         H           -1.676644631136     0.689748904733    -2.116760962932     1.007825032070
         C           -0.004930192026    -0.088475487599    -0.100349261761    12.000000000000
         BR          -0.112904552015    -2.032262310533    -0.100618731432    78.918337087000
         H            1.023100748149    -0.006757017467    -1.983573773920     1.007825032070

  Running in c1 symmetry.

  Rotational constants: A =      0.02232  B =      0.01908  C =      0.01700 [cm^-1]
  Rotational constants: A =    669.02024  B =    571.90307  C =    509.53696 [MHz]
  Nuclear repulsion = 1475.351993680458463

  Charge       = 0
  Multiplicity = 1
  Electrons    = 144
  Nalpha       = 72
  Nbeta        = 72

  ==> Algorithm <==

  SCF Algorithm Type is DF.
  DIIS enabled.
  MOM disabled.
  Fractional occupation disabled.
  Guess Type is SAD.
  Energy threshold   = 1.00e-08
  Density threshold  = 1.00e-08
  Integral threshold = 0.00e+00

  ==> Primary Basis <==

  Basis Set: ANONYMOUS58475730
    Blend: 6-311PPGSS + DEF2-TZVPP
    Number of shells: 123
    Number of basis function: 289
    Number of Cartesian functions: 315
    Spherical Harmonics?: true
    Max angular momentum: 3

  ==> DFT Potential <==

   => Composite Functional: M06-2X <= 

    Hybrid M06-2X Meta-GGA XC Functional

    Y. Zhao and D. G. Truhlar,  Theor. Chem. Acc., 120, 215, 2008


    Deriv               =              1
    GGA                 =           TRUE
    Meta                =           TRUE

    Exchange Hybrid     =           TRUE
    MP2 Hybrid          =          FALSE

   => Exchange Functionals <=

    1.0000   XC_HYB_MGGA_X_M06_2X

   => Exact (HF) Exchange <=

    0.5400               HF 

   => Correlation Functionals <=

    1.0000   XC_MGGA_C_M06_2X

   => Molecular Quadrature <=

    Radial Scheme       =       TREUTLER
    Pruning Scheme      =           FLAT
    Nuclear Scheme      =       TREUTLER

    BS radius alpha     =              1
    Pruning alpha       =              1
    Radial Points       =             75
    Spherical Points    =            302
    Total Points        =         294012
    Total Blocks        =           2269
    Max Points          =            256
    Max Functions       =            249

   => Loading Basis Set <=

    Name: (ANONYMOUS58475730 AUX)
    Role: JKFIT
    Keyword: DF_BASIS_SCF
    atoms 1, 6, 11       entry C          line   162 file /root/psi4conda/share/psi4/basis/aug-cc-pvtz-jkfit.gbs 
    atoms 2, 9           entry O          line   286 file /root/psi4conda/share/psi4/basis/aug-cc-pvtz-jkfit.gbs 
    atoms 3-4, 12        entry BR         line  3129 file /root/psi4conda/share/psi4/basis/def2-tzvpp-jkfit.gbs 
    atoms 5, 7-8, 10, 13 entry H          line    70 file /root/psi4conda/share/psi4/basis/aug-cc-pvtz-jkfit.gbs 

  ==> Pre-Iterations <==

   -------------------------------------------------------
    Irrep   Nso     Nmo     Nalpha   Nbeta   Ndocc  Nsocc
   -------------------------------------------------------
     A        289     289       0       0       0       0
   -------------------------------------------------------
    Total     289     289      72      72      72       0
   -------------------------------------------------------

  ==> Integral Setup <==

  ==> DiskDFJK: Density-Fitted J/K Matrices <==

    J tasked:                  Yes
    K tasked:                  Yes
    wK tasked:                  No
    OpenMP threads:             32
    Integrals threads:          32
    Memory (MB):               375
    Algorithm:                Disk
    Integral Cache:           NONE
    Schwarz Cutoff:          1E-12
    Fitting Condition:       1E-12

   => Auxiliary Basis Set <=

  Basis Set: (ANONYMOUS58475730 AUX)
    Blend: AUG-CC-PVTZ-JKFIT + DEF2-TZVPP-JKFIT
    Number of shells: 400
    Number of basis function: 1548
    Number of Cartesian functions: 2043
    Spherical Harmonics?: true
    Max angular momentum: 5

  Minimum eigenvalue in the overlap matrix is 4.6415651166E-05.
  Using Symmetric Orthogonalization.

  SCF Guess: Superposition of Atomic Densities via on-the-fly atomic UHF.

  ==> Iterations <==

                           Total Energy        Delta E     RMS |[F,P]|

   @DF-RKS iter   0: -7991.44068320437145   -7.99144e+03   1.00649e-01 
   @DF-RKS iter   1: -7989.80568449832208    1.63500e+00   2.87321e-02 
   @DF-RKS iter   2: -7989.50611142922389    2.99573e-01   2.84297e-02 DIIS
   @DF-RKS iter   3: -7990.21248690905395   -7.06375e-01   8.14136e-03 DIIS
   @DF-RKS iter   4: -7990.30252954040589   -9.00426e-02   1.17885e-03 DIIS
   @DF-RKS iter   5: -7990.30623435083089   -3.70481e-03   5.78232e-04 DIIS
   @DF-RKS iter   6: -7990.30652745153566   -2.93101e-04   3.48225e-05 DIIS
   @DF-RKS iter   7: -7990.30654225134458   -1.47998e-05   1.24679e-05 DIIS
   @DF-RKS iter   8: -7990.30654377178780   -1.52044e-06   4.69269e-06 DIIS
   @DF-RKS iter   9: -7990.30654404064171   -2.68854e-07   1.68335e-06 DIIS
   @DF-RKS iter  10: -7990.30654406955000   -2.89083e-08   3.76977e-07 DIIS
   @DF-RKS iter  11: -7990.30654407129805   -1.74805e-09   1.18630e-07 DIIS
   @DF-RKS iter  12: -7990.30654407148631   -1.88265e-10   3.29102e-08 DIIS
   @DF-RKS iter  13: -7990.30654407151633   -3.00133e-11   1.10507e-08 DIIS
   @DF-RKS iter  14: -7990.30654407152542   -9.09495e-12   3.64722e-09 DIIS

  ==> Post-Iterations <==

    Orbital Energies [Eh]
    ---------------------

    Doubly Occupied:                                                      

       1A   -485.394382     2A   -485.393642     3A   -485.392002  
       4A    -63.379827     5A    -63.379118     6A    -63.377414  
       7A    -57.198302     8A    -57.197593     9A    -57.195936  
      10A    -57.195623    11A    -57.195519    12A    -57.194903  
      13A    -57.194805    14A    -57.193162    15A    -57.193101  
      16A    -19.657050    17A    -19.652732    18A    -10.712656  
      19A    -10.684592    20A    -10.600578    21A     -9.045217  
      22A     -9.044546    23A     -9.042815    24A     -6.869755  
      25A     -6.869093    26A     -6.867496    27A     -6.859950  
      28A     -6.859580    29A     -6.859253    30A     -6.858920  
      31A     -6.857371    32A     -6.857158    33A     -2.903624  
      34A     -2.902928    35A     -2.901312    36A     -2.900154  
      37A     -2.899799    38A     -2.899485    39A     -2.899167  
      40A     -2.897755    41A     -2.897549    42A     -2.890689  
      43A     -2.890677    44A     -2.889994    45A     -2.889985  
      46A     -2.888106    47A     -2.888098    48A     -1.233084  
      49A     -1.157138    50A     -0.983515    51A     -0.874888  
      52A     -0.871302    53A     -0.844194    54A     -0.775528  
      55A     -0.692432    56A     -0.628801    57A     -0.603551  
      58A     -0.580020    59A     -0.536864    60A     -0.517662  
      61A     -0.495333    62A     -0.481337    63A     -0.475592  
      64A     -0.423809    65A     -0.411365    66A     -0.386555  
      67A     -0.384693    68A     -0.376681    69A     -0.359930  
      70A     -0.354675    71A     -0.347729    72A     -0.338155  

    Virtual:                                                              

      73A     -0.031688    74A     -0.002353    75A      0.011018  
      76A      0.014190    77A      0.017345    78A      0.027161  
      79A      0.036137    80A      0.044908    81A      0.068909  
      82A      0.072578    83A      0.079471    84A      0.096052  
      85A      0.108933    86A      0.114841    87A      0.121546  
      88A      0.127281    89A      0.131520    90A      0.133097  
      91A      0.147365    92A      0.152088    93A      0.178056  
      94A      0.186083    95A      0.199066    96A      0.203942  
      97A      0.209940    98A      0.227507    99A      0.236036  
     100A      0.243043   101A      0.259243   102A      0.269399  
     103A      0.273073   104A      0.280824   105A      0.286612  
     106A      0.293442   107A      0.305471   108A      0.311387  
     109A      0.316625   110A      0.320726   111A      0.328908  
     112A      0.338856   113A      0.344525   114A      0.354631  
     115A      0.364823   116A      0.365616   117A      0.377027  
     118A      0.386544   119A      0.392033   120A      0.397176  
     121A      0.419195   122A      0.430680   123A      0.431964  
     124A      0.446237   125A      0.465686   126A      0.472201  
     127A      0.483774   128A      0.486819   129A      0.498200  
     130A      0.544382   131A      0.546047   132A      0.556420  
     133A      0.577100   134A      0.594890   135A      0.596269  
     136A      0.601753   137A      0.634629   138A      0.646096  
     139A      0.670881   140A      0.684741   141A      0.686732  
     142A      0.730623   143A      0.753940   144A      0.767785  
     145A      0.790512   146A      0.815235   147A      0.846965  
     148A      0.888833   149A      0.935193   150A      0.952459  
     151A      1.014352   152A      1.055950   153A      1.063515  
     154A      1.088853   155A      1.104088   156A      1.119249  
     157A      1.144255   158A      1.151275   159A      1.203410  
     160A      1.224492   161A      1.262974   162A      1.303221  
     163A      1.317155   164A      1.333591   165A      1.353431  
     166A      1.356556   167A      1.365446   168A      1.378546  
     169A      1.395910   170A      1.401588   171A      1.402170  
     172A      1.406251   173A      1.414209   174A      1.420663  
     175A      1.429788   176A      1.443639   177A      1.451538  
     178A      1.455933   179A      1.477082   180A      1.479050  
     181A      1.488400   182A      1.511072   183A      1.529632  
     184A      1.546017   185A      1.556708   186A      1.558874  
     187A      1.563729   188A      1.568575   189A      1.573094  
     190A      1.577994   191A      1.593149   192A      1.599006  
     193A      1.602619   194A      1.612655   195A      1.615542  
     196A      1.640772   197A      1.654833   198A      1.671221  
     199A      1.685795   200A      1.696473   201A      1.706232  
     202A      1.710813   203A      1.725993   204A      1.739420  
     205A      1.758441   206A      1.771052   207A      1.773007  
     208A      1.777634   209A      1.783885   210A      1.800422  
     211A      1.811737   212A      1.825138   213A      1.842364  
     214A      1.857557   215A      1.868184   216A      1.887000  
     217A      1.923814   218A      1.935783   219A      1.978503  
     220A      2.002230   221A      2.041427   222A      2.055322  
     223A      2.110106   224A      2.126505   225A      2.140460  
     226A      2.156301   227A      2.175833   228A      2.215637  
     229A      2.254186   230A      2.337114   231A      2.380939  
     232A      2.409118   233A      2.464893   234A      2.547517  
     235A      2.552820   236A      2.569091   237A      2.591822  
     238A      2.646366   239A      2.690302   240A      2.831895  
     241A      2.896737   242A      2.967447   243A      3.016969  
     244A      3.091880   245A      3.116838   246A      3.154922  
     247A      3.208621   248A      3.228833   249A      3.254042  
     250A      3.333691   251A      3.359308   252A      3.394119  
     253A      3.513841   254A      3.776027   255A      3.824737  
     256A      3.868913   257A      3.939164   258A      4.024584  
     259A      4.074934   260A      4.078181   261A      4.084392  
     262A      4.090069   263A      4.096664   264A      4.104748  
     265A      4.120312   266A      4.157324   267A      4.182200  
     268A      4.187722   269A      4.198738   270A      4.210736  
     271A      4.233002   272A      4.269281   273A      4.419383  
     274A      4.466547   275A      4.477738   276A      5.211049  
     277A      5.232662   278A      5.442751   279A      5.532397  
     280A      5.689754   281A      5.856240   282A      7.590974  
     283A      7.619461   284A      7.635363   285A     23.556614  
     286A     23.809023   287A     23.996817   288A     50.021061  
     289A     50.048096  

    Final Occupation by Irrep:
              A 
    DOCC [    72 ]

  Energy converged.

  @DF-RKS Final Energy: -7990.30654407152542

   => Energetics <=

    Nuclear Repulsion Energy =           1475.3519936804584631
    One-Electron Energy =              -14056.3987471642503806
    Two-Electron Energy =                4736.7974276652084882
    DFT Exchange-Correlation Energy =    -146.0572182529422207
    Empirical Dispersion Energy =           0.0000000000000000
    VV10 Nonlocal Energy =                  0.0000000000000000
    Total Energy =                      -7990.3065440715254226



Properties will be evaluated at   0.000000,   0.000000,   0.000000 [a0]

Properties computed using the SCF density matrix

  Nuclear Dipole Moment: [e a0]
     X:     5.0293      Y:    15.7358      Z:   -23.2266

  Electronic Dipole Moment: [e a0]
     X:    -4.6241      Y:   -15.1512      Z:    22.7817

  Dipole Moment: [e a0]
     X:     0.4052      Y:     0.5846      Z:    -0.4449     Total:     0.8390

  Dipole Moment: [D]
     X:     1.0298      Y:     1.4859      Z:    -1.1308     Total:     2.1324


*** tstop() called on localhost.localdomain at Tue Mar 19 13:18:25 2019
Module time:
	user time   =    1016.54 seconds =      16.94 minutes
	system time =      83.40 seconds =       1.39 minutes
	total time  =         50 seconds =       0.83 minutes
Total time:
	user time   =    1016.54 seconds =      16.94 minutes
	system time =      83.40 seconds =       1.39 minutes
	total time  =         50 seconds =       0.83 minutes

*** tstart() called on localhost.localdomain
*** at Tue Mar 19 13:18:25 2019


         ------------------------------------------------------------
                                   SCF GRAD                          
                          Rob Parrish, Justin Turney,                
                       Andy Simmonett, and Alex Sokolov              
         ------------------------------------------------------------

  ==> Geometry <==

    Molecular point group: c1
    Full point group: C1

    Geometry (in Angstrom), charge = 0, multiplicity = 1:

       Center              X                  Y                   Z               Mass       
    ------------   -----------------  -----------------  -----------------  -----------------
         C            0.132149780019     0.464485552988    -1.555878749644    12.000000000000
         O           -0.941538170037     0.112932105438    -2.353711474141    15.994914619560
         BR           1.580303840692     0.457103442135     0.884356510981    78.918337087000
         BR          -1.602541917447     0.645810589267     0.721554292461    78.918337087000
         H            1.140720803636     3.486733344777    -2.249388538373     1.007825032070
         C            1.333818205297     2.417379765118    -2.195322164853    12.000000000000
         H            1.390460659622     2.009151699788    -3.208456461089     1.007825032070
         H            2.275891032237     2.242828091473    -1.667409556590     1.007825032070
         O            0.250490274042     1.846086645691    -1.476450587128    15.994914619560
         H           -1.676644631136     0.689748904733    -2.116760962932     1.007825032070
         C           -0.004930192026    -0.088475487599    -0.100349261761    12.000000000000
         BR          -0.112904552015    -2.032262310533    -0.100618731432    78.918337087000
         H            1.023100748149    -0.006757017467    -1.983573773920     1.007825032070

  Nuclear repulsion = 1475.351993680458463

  ==> Basis Set <==

  Basis Set: ANONYMOUS58475730
    Blend: 6-311PPGSS + DEF2-TZVPP
    Number of shells: 123
    Number of basis function: 289
    Number of Cartesian functions: 315
    Spherical Harmonics?: true
    Max angular momentum: 3

  ==> DFJKGrad: Density-Fitted SCF Gradients <==

    Gradient:                    1
    J tasked:                  Yes
    K tasked:                  Yes
    wK tasked:                  No
    OpenMP threads:             32
    Integrals threads:          32
    Memory (MB):               375
    Schwarz Cutoff:          0E+00
    Fitting Condition:       1E-12

   => Auxiliary Basis Set <=

  Basis Set: (ANONYMOUS58475730 AUX)
    Blend: AUG-CC-PVTZ-JKFIT + DEF2-TZVPP-JKFIT
    Number of shells: 400
    Number of basis function: 1548
    Number of Cartesian functions: 2043
    Spherical Harmonics?: true
    Max angular momentum: 5

  ==> DFT Potential <==

   => Composite Functional: M06-2X <= 

    Hybrid M06-2X Meta-GGA XC Functional

    Y. Zhao and D. G. Truhlar,  Theor. Chem. Acc., 120, 215, 2008


    Deriv               =              1
    GGA                 =           TRUE
    Meta                =           TRUE

    Exchange Hybrid     =           TRUE
    MP2 Hybrid          =          FALSE

   => Exchange Functionals <=

    1.0000   XC_HYB_MGGA_X_M06_2X

   => Exact (HF) Exchange <=

    0.5400               HF 

   => Correlation Functionals <=

    1.0000   XC_MGGA_C_M06_2X

   => Molecular Quadrature <=

    Radial Scheme       =       TREUTLER
    Pruning Scheme      =           FLAT
    Nuclear Scheme      =       TREUTLER

    BS radius alpha     =              1
    Pruning alpha       =              1
    Radial Points       =             75
    Spherical Points    =            302
    Total Points        =         294012
    Total Blocks        =           2269
    Max Points          =            256
    Max Functions       =            249


  -Total Gradient:
     Atom            X                  Y                   Z
    ------   -----------------  -----------------  -----------------
       1        0.000014357172     0.000320936814    -0.000452841606
       2       -0.002034266112     0.002657290415     0.000184969664
       3       -0.000304027736     0.000193000510    -0.001394332605
       4        0.000559106837    -0.001022532635    -0.000615963863
       5       -0.000160014976     0.000011184946    -0.000269260197
       6        0.000557873601     0.001061292550     0.000116264178
       7        0.000346440268    -0.000118740607     0.000141723425
       8       -0.000057236339     0.000408053231     0.000242465915
       9        0.000052287178     0.000503684180    -0.001357453836
      10        0.001433195493    -0.000172818942    -0.000853424029
      11       -0.000154024299     0.000018989486    -0.000271051705
      12       -0.000173044286    -0.003275000133     0.003060187527
      13       -0.000016574231     0.000001327282    -0.000035712768


*** tstop() called on localhost.localdomain at Tue Mar 19 13:18:43 2019
Module time:
	user time   =     278.42 seconds =       4.64 minutes
	system time =      14.82 seconds =       0.25 minutes
	total time  =         18 seconds =       0.30 minutes
Total time:
	user time   =    1295.01 seconds =      21.58 minutes
	system time =      98.23 seconds =       1.64 minutes
	total time  =         68 seconds =       1.13 minutes

			-----------------------------------------
			 OPTKING 2.0: for geometry optimizations 
			  - R.A. King,  Bethel University        
			-----------------------------------------

	Internal coordinates to be generated automatically.
	Detected frag 1 with atoms:  1 2 3 4 5 6 7 8 9 10 11 12 13
	---Fragment 1 Bond Connectivity---
	 1 : 2 9 11 13
	 2 : 1 10
	 3 : 11
	 4 : 11
	 5 : 6
	 6 : 5 7 8 9
	 7 : 6
	 8 : 6
	 9 : 1 6
	 10 : 2
	 11 : 1 3 4 12
	 12 : 11
	 13 : 1

	---Fragment 1 Geometry and Gradient---
	 C           0.2497268928        0.8777504878       -2.9401847328
	 O          -1.7792492850        0.2134107509       -4.4478700820
	 BR          2.9863414657        0.8638003200        1.6711916096
	 BR         -3.0283653404        1.2204051474        1.3635400028
	 H           2.1556499130        6.5889711200       -4.2507283040
	 C           2.5205511191        4.5681857153       -4.1485576650
	 H           2.6275898452        3.7967464720       -6.0631040207
	 H           4.3008107592        4.2383308560       -3.1509474133
	 O           0.4733580169        3.4885981779       -2.7900872584
	 H          -3.1683991750        1.3034365304       -4.0000985087
	 C          -0.0093167127       -0.1671944410       -0.1896326224
	 BR         -0.2133586825       -3.8404191971       -0.1901418462
	 H           1.9333802204       -0.0127689125       -3.7484111971
	             0.0000143572        0.0003209368       -0.0004528416
	            -0.0020342661        0.0026572904        0.0001849697
	            -0.0003040277        0.0001930005       -0.0013943326
	             0.0005591068       -0.0010225326       -0.0006159639
	            -0.0001600150        0.0000111849       -0.0002692602
	             0.0005578736        0.0010612926        0.0001162642
	             0.0003464403       -0.0001187406        0.0001417234
	            -0.0000572363        0.0004080532        0.0002424659
	             0.0000522872        0.0005036842       -0.0013574538
	             0.0014331955       -0.0001728189       -0.0008534240
	            -0.0001540243        0.0000189895       -0.0002710517
	            -0.0001730443       -0.0032750001        0.0030601875
	            -0.0000165742        0.0000013273       -0.0000357128

	Previous optimization step data not found.  Starting new optimization.

	---Fragment 1 Intrafragment Coordinates---
	 - Coordinate -           - BOHR/RAD -       - ANG/DEG -
	 R(1,2)           =         2.613658	       1.383088
	 R(1,9)           =         2.624703	       1.388933
	 R(1,11)          =         2.953735	       1.563049
	 R(1,13)          =         2.069044	       1.094891
	 R(2,10)          =         1.821646	       0.963973
	 R(3,11)          =         3.674178	       1.944291
	 R(4,11)          =         3.667756	       1.940893
	 R(5,6)           =         2.056007	       1.087992
	 R(6,7)           =         2.066897	       1.093755
	 R(6,8)           =         2.067209	       1.093920
	 R(6,9)           =         2.683645	       1.420124
	 R(11,12)         =         3.678888	       1.946783
	 B(1,2,10)        =         1.873499	     107.343579
	 B(1,9,6)         =         2.022177	     115.862208
	 B(1,11,3)        =         1.876377	     107.508475
	 B(1,11,4)        =         1.909947	     109.431900
	 B(1,11,12)       =         1.936880	     110.975051
	 B(2,1,9)         =         1.930470	     110.607778
	 B(2,1,11)        =         1.959690	     112.281984
	 B(2,1,13)        =         1.872312	     107.275566
	 B(3,11,4)        =         1.928894	     110.517513
	 B(3,11,12)       =         1.902299	     108.993700
	 B(4,11,12)       =         1.909375	     109.399129
	 B(5,6,7)         =         1.907102	     109.268891
	 B(5,6,8)         =         1.910977	     109.490937
	 B(5,6,9)         =         1.859968	     106.568308
	 B(7,6,8)         =         1.920759	     110.051364
	 B(7,6,9)         =         1.937189	     110.992758
	 B(8,6,9)         =         1.926737	     110.393897
	 B(9,1,11)        =         1.881914	     107.825728
	 B(9,1,13)        =         1.961821	     112.404054
	 B(11,1,13)       =         1.857570	     106.430895
	 D(1,9,6,5)       =         2.889988	     165.584121
	 D(1,9,6,7)       =         0.815189	      46.706878
	 D(1,9,6,8)       =        -1.319468	     -75.599941
	 D(2,1,9,6)       =        -1.870800	    -107.188919
	 D(2,1,11,3)      =         3.125132	     179.056874
	 D(2,1,11,4)      =        -1.062494	     -60.876396
	 D(2,1,11,12)     =         1.046336	      59.950654
	 D(3,11,1,9)      =        -1.027103	     -58.848674
	 D(3,11,1,13)     =         1.081474	      61.963869
	 D(4,11,1,9)      =         1.068457	      61.218056
	 D(4,11,1,13)     =        -3.106152	    -177.969402
	 D(6,9,1,11)      =         2.263493	     129.688614
	 D(6,9,1,13)      =         0.221509	      12.691520
	 D(9,1,2,10)      =        -0.757377	     -43.394512
	 D(9,1,11,12)     =        -3.105899	    -177.954894
	 D(10,2,1,11)     =         1.345729	      77.104612
	 D(10,2,1,13)     =        -2.902623	    -166.308059
	 D(12,11,1,13)    =        -0.997322	     -57.142351
	 R(3,6)           =         6.914399	       3.658942
	 R(4,6)           =         8.507722	       4.502092

	Current energy   :     -7990.3065440715

	Generating empirical Hessian (Schlegel '84) for each fragment.
	Taking RFO optimization step.
	Going to follow RFO solution 1.
	Using RFO vector 1.
	Norm of target step-size    0.40319
	Projected energy change by RFO approximation:        -0.0039137005

	Back-transformation to cartesian coordinates...
	Could not converge backtransformation.
	Using first guess instead.

	--- Internal Coordinate Step in ANG or DEG, aJ/ANG or AJ/DEG ---
	 ---------------------------------------------------------------------------
	   Coordinate                Previous        Force       Change         New 
	   ----------                --------       ------       ------       ------
	    1 R(1,2)          =      1.383088    -0.000943     0.001932     1.385020
	    2 R(1,9)          =      1.388933    -0.016140    -0.001981     1.386952
	    3 R(1,11)         =      1.563049    -0.027066    -0.006803     1.556246
	    4 R(1,13)         =      1.094891     0.000215     0.001124     1.096015
	    5 R(2,10)         =      0.963973     0.011661     0.003866     0.967839
	    6 R(3,11)         =      1.944291     0.004712     0.000810     1.945102
	    7 R(4,11)         =      1.940893     0.010179     0.002010     1.942903
	    8 R(5,6)          =      1.087992    -0.000103     0.015679     1.103671
	    9 R(6,7)          =      1.093755     0.001226     0.016599     1.110353
	   10 R(6,8)          =      1.093920    -0.000298     0.016837     1.110757
	   11 R(6,9)          =      1.420124    -0.007023    -0.001189     1.418934
	   12 R(11,12)        =      1.946783    -0.027342    -0.003564     1.943220
	   13 B(1,2,10)       =    107.343579     0.000030     0.132991   107.476570
	   14 B(1,9,6)        =    115.862208    -0.000302    -0.972637   114.889571
	   15 B(1,11,3)       =    107.508475     0.000165     0.268990   107.777465
	   16 B(1,11,4)       =    109.431900     0.000078     0.341475   109.773375
	   17 B(1,11,12)      =    110.975051    -0.000663    -2.043711   108.931339
	   18 B(2,1,9)        =    110.607778     0.000198     1.131441   111.739219
	   19 B(2,1,11)       =    112.281984    -0.000158    -0.352015   111.929970
	   20 B(2,1,13)       =    107.275566    -0.000037    -0.385199   106.890367
	   21 B(3,11,4)       =    110.517513    -0.000052     0.161288   110.678801
	   22 B(3,11,12)      =    108.993700     0.000215     0.697317   109.691017
	   23 B(4,11,12)      =    109.399129     0.000250     0.543779   109.942909
	   24 B(5,6,7)        =    109.268891    -0.000005     0.281461   109.550353
	   25 B(5,6,8)        =    109.490937     0.000005     0.351079   109.842016
	   26 B(5,6,9)        =    106.568308     0.000013    -0.314928   106.253381
	   27 B(7,6,8)        =    110.051364    -0.000004     0.225319   110.276683
	   28 B(7,6,9)        =    110.992758    -0.000023    -0.388658   110.604100
	   29 B(8,6,9)        =    110.393897     0.000015    -0.159934   110.233963
	   30 B(9,1,11)       =    107.825728    -0.000050    -0.291281   107.534447
	   31 B(9,1,13)       =    112.404054    -0.000040    -0.186801   112.217253
	   32 B(11,1,13)      =    106.430895     0.000077     0.028832   106.459728
	   33 D(1,9,6,5)      =    165.584121     0.000011    11.335510   176.919631
	   34 D(1,9,6,7)      =     46.706878     0.000013    11.397194    58.104072
	   35 D(1,9,6,8)      =    -75.599941     0.000015    11.484439   -64.115502
	   36 D(2,1,9,6)      =   -107.188919    -0.000002     2.100399  -105.088520
	   37 D(2,1,11,3)     =    179.056874    -0.000026    -3.369519   175.687355
	   38 D(2,1,11,4)     =    -60.876396    -0.000008    -2.816535   -63.692932
	   39 D(2,1,11,12)    =     59.950654    -0.000022    -3.213615    56.737040
	   40 D(3,11,1,9)     =    -58.848674    -0.000000    -2.375278   -61.223952
	   41 D(3,11,1,13)    =     61.963869    -0.000007    -2.734258    59.229611
	   42 D(4,11,1,9)     =     61.218056     0.000018    -1.822294    59.395761
	   43 D(4,11,1,13)    =   -177.969402     0.000011    -2.181275  -180.150676
	   44 D(6,9,1,11)     =    129.688614     0.000021     2.017143   131.705757
	   45 D(6,9,1,13)     =     12.691520     0.000012     2.268606    14.960126
	   46 D(9,1,2,10)     =    -43.394512    -0.000002    -2.920174   -46.314686
	   47 D(9,1,11,12)    =   -177.954894     0.000004    -2.219373  -180.174267
	   48 D(10,2,1,11)    =     77.104612    -0.000009    -2.743319    74.361293
	   49 D(10,2,1,13)    =   -166.308059    -0.000013    -3.133588  -169.441648
	   50 D(12,11,1,13)   =    -57.142351    -0.000003    -2.578354   -59.720705
	   51 R(3,6)          =      3.658942     0.006634     0.041784     3.700727
	   52 R(4,6)          =      4.502092    -0.001935    -0.021014     4.481078
	 ---------------------------------------------------------------------------
	Successfully symmetrized geometry.

  ==> Convergence Check <==

  Measures of convergence in internal coordinates in au.
  Criteria marked as inactive (o), active & met (*), and active & unmet ( ).
  --------------------------------------------------------------------------------------------- ~
   Step     Total Energy     Delta E     MAX Force     RMS Force      MAX Disp      RMS Disp    ~
  --------------------------------------------------------------------------------------------- ~
    Convergence Criteria    1.00e-06 *    3.00e-04 *             o    1.20e-03 *             o  ~
  --------------------------------------------------------------------------------------------- ~
      1   -7990.30654407   -7.99e+03      8.71e-03      1.81e-03 o    2.00e-01      5.61e-02 o  ~
  ---------------------------------------------------------------------------------------------

	Writing optimization data to binary file.
	Structure for next step:
	Cartesian Geometry (in Angstrom)
	    C     0.1562537198   0.4696525147  -1.5387313940
	    O    -0.8784956589   0.0590060449  -2.3627117015
	   BR     1.5617140077   0.4682104844   0.9267197814
	   BR    -1.6203730843   0.6973454418   0.7049987298
	    H     1.2187739800   3.5128037843  -2.1057086350
	    C     1.3168301757   2.4183544589  -2.2089378030
	    H     1.2465086146   2.1384906496  -3.2811391479
	    H     2.2889868113   2.0854744758  -1.7871758235
	    O     0.2433267375   1.8523398734  -1.4736878330
	    H    -1.6587599543   0.5834447492  -2.1327878788
	    C    -0.0140862281  -0.0583296437  -0.0847293084
	   BR    -0.1460976858  -1.9965495570  -0.1292268503
	    H     1.0737944459   0.0145220496  -1.9288915941
			--------------------------
			 OPTKING Finished Execution 
			--------------------------

    Structure for next step:
    Molecular point group: c1
    Full point group: C1

    Geometry (in Angstrom), charge = 0, multiplicity = 1:

    C            0.171130651889     0.445935139542    -1.538404893832
    O           -0.863618726797     0.035288669766    -2.362385201356
    BR           1.576590939764     0.444493109194     0.927046281608
    BR          -1.605496152182     0.673628066587     0.705325229991
    H            1.233650912088     3.489086409100    -2.105382134827
    C            1.331707107760     2.394637083688    -2.208611302846
    H            1.261385546725     2.114773274402    -3.280812647765
    H            2.303863743364     2.061757100598    -1.786849323367
    O            0.258203669563     1.828622498273    -1.473361332881
    H           -1.643883022155     0.559727374010    -2.132461378635
    C            0.000790704046    -0.082047018849    -0.084402808271
    BR          -0.131220753713    -2.020266932172    -0.128900350175
    H            1.088671377952    -0.009195325566    -1.928565093958

gradient() will perform analytic gradient computation.

*** tstart() called on localhost.localdomain
*** at Tue Mar 19 13:18:43 2019

   => Loading Basis Set <=

    Name: ANONYMOUS58475730
    Role: ORBITAL
    Keyword: BASIS
    atoms 1, 6, 11       entry C          line   119 file /root/psi4conda/share/psi4/basis/6-311ppgss.gbs 
    atoms 2, 9           entry O          line   161 file /root/psi4conda/share/psi4/basis/6-311ppgss.gbs 
    atoms 3-4, 12        entry BR         line  1545 file /root/psi4conda/share/psi4/basis/def2-tzvpp.gbs 
    atoms 5, 7-8, 10, 13 entry H          line    42 file /root/psi4conda/share/psi4/basis/6-311ppgss.gbs 


         ---------------------------------------------------------
                                   SCF
            by Justin Turney, Rob Parrish, Andy Simmonett
                             and Daniel Smith
                              RKS Reference
                       32 Threads,    500 MiB Core
         ---------------------------------------------------------

  ==> Geometry <==

    Molecular point group: c1
    Full point group: C1

    Geometry (in Angstrom), charge = 0, multiplicity = 1:

       Center              X                  Y                   Z               Mass       
    ------------   -----------------  -----------------  -----------------  -----------------
         C            0.171130651889     0.445935139542    -1.538404893832    12.000000000000
         O           -0.863618726797     0.035288669766    -2.362385201356    15.994914619560
         BR           1.576590939764     0.444493109194     0.927046281608    78.918337087000
         BR          -1.605496152182     0.673628066587     0.705325229991    78.918337087000
         H            1.233650912088     3.489086409100    -2.105382134827     1.007825032070
         C            1.331707107760     2.394637083688    -2.208611302846    12.000000000000
         H            1.261385546725     2.114773274402    -3.280812647765     1.007825032070
         H            2.303863743364     2.061757100598    -1.786849323367     1.007825032070
         O            0.258203669563     1.828622498273    -1.473361332881    15.994914619560
         H           -1.643883022155     0.559727374010    -2.132461378635     1.007825032070
         C            0.000790704046    -0.082047018849    -0.084402808271    12.000000000000
         BR          -0.131220753713    -2.020266932172    -0.128900350175    78.918337087000
         H            1.088671377952    -0.009195325566    -1.928565093958     1.007825032070

  Running in c1 symmetry.

  Rotational constants: A =      0.02209  B =      0.01908  C =      0.01718 [cm^-1]
  Rotational constants: A =    662.20600  B =    572.11059  C =    515.01621 [MHz]
  Nuclear repulsion = 1475.680145407318605

  Charge       = 0
  Multiplicity = 1
  Electrons    = 144
  Nalpha       = 72
  Nbeta        = 72

  ==> Algorithm <==

  SCF Algorithm Type is DF.
  DIIS enabled.
  MOM disabled.
  Fractional occupation disabled.
  Guess Type is READ.
  Energy threshold   = 1.00e-08
  Density threshold  = 1.00e-08
  Integral threshold = 0.00e+00

  ==> Primary Basis <==

  Basis Set: ANONYMOUS58475730
    Blend: 6-311PPGSS + DEF2-TZVPP
    Number of shells: 123
    Number of basis function: 289
    Number of Cartesian functions: 315
    Spherical Harmonics?: true
    Max angular momentum: 3

  ==> DFT Potential <==

   => Composite Functional: M06-2X <= 

    Hybrid M06-2X Meta-GGA XC Functional

    Y. Zhao and D. G. Truhlar,  Theor. Chem. Acc., 120, 215, 2008


    Deriv               =              1
    GGA                 =           TRUE
    Meta                =           TRUE

    Exchange Hybrid     =           TRUE
    MP2 Hybrid          =          FALSE

   => Exchange Functionals <=

    1.0000   XC_HYB_MGGA_X_M06_2X

   => Exact (HF) Exchange <=

    0.5400               HF 

   => Correlation Functionals <=

    1.0000   XC_MGGA_C_M06_2X

   => Molecular Quadrature <=

    Radial Scheme       =       TREUTLER
    Pruning Scheme      =           FLAT
    Nuclear Scheme      =       TREUTLER

    BS radius alpha     =              1
    Pruning alpha       =              1
    Radial Points       =             75
    Spherical Points    =            302
    Total Points        =         294016
    Total Blocks        =           2280
    Max Points          =            256
    Max Functions       =            254

   => Loading Basis Set <=

    Name: (ANONYMOUS58475730 AUX)
    Role: JKFIT
    Keyword: DF_BASIS_SCF
    atoms 1, 6, 11       entry C          line   162 file /root/psi4conda/share/psi4/basis/aug-cc-pvtz-jkfit.gbs 
    atoms 2, 9           entry O          line   286 file /root/psi4conda/share/psi4/basis/aug-cc-pvtz-jkfit.gbs 
    atoms 3-4, 12        entry BR         line  3129 file /root/psi4conda/share/psi4/basis/def2-tzvpp-jkfit.gbs 
    atoms 5, 7-8, 10, 13 entry H          line    70 file /root/psi4conda/share/psi4/basis/aug-cc-pvtz-jkfit.gbs 

  Reading orbitals from file 180, no projection.

  ==> Pre-Iterations <==

   -------------------------------------------------------
    Irrep   Nso     Nmo     Nalpha   Nbeta   Ndocc  Nsocc
   -------------------------------------------------------
     A        289     289       0       0       0       0
   -------------------------------------------------------
    Total     289     289      72      72      72       0
   -------------------------------------------------------

  ==> Integral Setup <==

  ==> DiskDFJK: Density-Fitted J/K Matrices <==

    J tasked:                  Yes
    K tasked:                  Yes
    wK tasked:                  No
    OpenMP threads:             32
    Integrals threads:          32
    Memory (MB):               375
    Algorithm:                Disk
    Integral Cache:           NONE
    Schwarz Cutoff:          1E-12
    Fitting Condition:       1E-12

   => Auxiliary Basis Set <=

  Basis Set: (ANONYMOUS58475730 AUX)
    Blend: AUG-CC-PVTZ-JKFIT + DEF2-TZVPP-JKFIT
    Number of shells: 400
    Number of basis function: 1548
    Number of Cartesian functions: 2043
    Spherical Harmonics?: true
    Max angular momentum: 5

  Minimum eigenvalue in the overlap matrix is 4.7262508215E-05.
  Using Symmetric Orthogonalization.

  SCF Guess: Orbitals guess was supplied from a previous computation.

  ==> Iterations <==

                           Total Energy        Delta E     RMS |[F,P]|

   @DF-RKS iter   0: -7990.26471681846033   -7.99026e+03   3.05506e-03 
   @DF-RKS iter   1: -7990.30589614662949   -4.11793e-02   5.27627e-04 
   @DF-RKS iter   2: -7990.30639043163774   -4.94285e-04   4.81924e-04 DIIS
   @DF-RKS iter   3: -7990.30674356960390   -3.53138e-04   1.43965e-04 DIIS
   @DF-RKS iter   4: -7990.30676069048695   -1.71209e-05   6.84058e-05 DIIS
   @DF-RKS iter   5: -7990.30677367912540   -1.29886e-05   6.52283e-06 DIIS
   @DF-RKS iter   6: -7990.30677406419181   -3.85066e-07   4.39001e-06 DIIS
   @DF-RKS iter   7: -7990.30677415072023   -8.65284e-08   7.49413e-07 DIIS
   @DF-RKS iter   8: -7990.30677415642731   -5.70708e-09   3.44644e-07 DIIS
   @DF-RKS iter   9: -7990.30677415728496   -8.57654e-10   9.09518e-08 DIIS
   @DF-RKS iter  10: -7990.30677415739137   -1.06411e-10   3.16390e-08 DIIS
   @DF-RKS iter  11: -7990.30677415739046    9.09495e-13   9.44594e-09 DIIS

  ==> Post-Iterations <==

    Orbital Energies [Eh]
    ---------------------

    Doubly Occupied:                                                      

       1A   -485.395296     2A   -485.394373     3A   -485.391242  
       4A    -63.380710     5A    -63.379816     6A    -63.376681  
       7A    -57.199192     8A    -57.198299     9A    -57.196513  
      10A    -57.196398    11A    -57.195598    12A    -57.195508  
      13A    -57.195196    14A    -57.192433    15A    -57.192365  
      16A    -19.657413    17A    -19.653319    18A    -10.712342  
      19A    -10.683389    20A    -10.604955    21A     -9.046073  
      22A     -9.045212    23A     -9.042102    24A     -6.870615  
      25A     -6.869771    26A     -6.866779    27A     -6.860819  
      28A     -6.860410    29A     -6.859900    30A     -6.859589  
      31A     -6.856688    32A     -6.856436    33A     -2.904480  
      34A     -2.903616    35A     -2.901030    36A     -2.900642  
      37A     -2.900605    38A     -2.900135    39A     -2.899843  
      40A     -2.897063    41A     -2.896808    42A     -2.891534  
      43A     -2.891523    44A     -2.890651    45A     -2.890639  
      46A     -2.887409    47A     -2.887401    48A     -1.232744  
      49A     -1.158060    50A     -0.983947    51A     -0.875523  
      52A     -0.871768    53A     -0.842323    54A     -0.772600  
      55A     -0.693111    56A     -0.627051    57A     -0.603176  
      58A     -0.579051    59A     -0.535151    60A     -0.517557  
      61A     -0.493804    62A     -0.481498    63A     -0.473393  
      64A     -0.422736    65A     -0.411938    66A     -0.386298  
      67A     -0.384505    68A     -0.377514    69A     -0.359662  
      70A     -0.355480    71A     -0.347815    72A     -0.338670  

    Virtual:                                                              

      73A     -0.032258    74A     -0.002391    75A      0.011024  
      76A      0.014582    77A      0.017915    78A      0.026735  
      79A      0.035500    80A      0.045153    81A      0.068889  
      82A      0.072106    83A      0.077876    84A      0.098903  
      85A      0.109015    86A      0.113069    87A      0.122043  
      88A      0.127992    89A      0.131269    90A      0.134047  
      91A      0.147080    92A      0.151068    93A      0.180000  
      94A      0.185713    95A      0.196810    96A      0.204304  
      97A      0.208643    98A      0.228425    99A      0.237420  
     100A      0.240093   101A      0.258123   102A      0.267655  
     103A      0.273161   104A      0.278418   105A      0.283368  
     106A      0.290194   107A      0.305194   108A      0.310714  
     109A      0.315966   110A      0.320088   111A      0.328134  
     112A      0.338891   113A      0.345186   114A      0.356849  
     115A      0.361949   116A      0.369943   117A      0.377949  
     118A      0.385379   119A      0.392315   120A      0.397555  
     121A      0.415687   122A      0.430894   123A      0.435804  
     124A      0.451376   125A      0.460668   126A      0.473702  
     127A      0.486110   128A      0.493664   129A      0.500304  
     130A      0.542824   131A      0.549157   132A      0.558895  
     133A      0.575511   134A      0.590966   135A      0.597969  
     136A      0.605650   137A      0.633374   138A      0.655307  
     139A      0.671106   140A      0.680302   141A      0.685508  
     142A      0.721550   143A      0.744081   144A      0.761792  
     145A      0.789722   146A      0.817628   147A      0.844696  
     148A      0.894943   149A      0.937724   150A      0.956716  
     151A      1.008724   152A      1.053140   153A      1.056799  
     154A      1.084804   155A      1.107279   156A      1.117191  
     157A      1.136824   158A      1.154952   159A      1.207163  
     160A      1.226125   161A      1.261325   162A      1.305104  
     163A      1.317599   164A      1.334921   165A      1.351160  
     166A      1.360497   167A      1.364377   168A      1.375141  
     169A      1.395655   170A      1.400861   171A      1.401730  
     172A      1.404680   173A      1.414475   174A      1.418557  
     175A      1.431317   176A      1.444779   177A      1.448321  
     178A      1.455787   179A      1.470640   180A      1.479328  
     181A      1.489235   182A      1.509347   183A      1.526706  
     184A      1.545765   185A      1.555069   186A      1.558185  
     187A      1.561340   188A      1.568801   189A      1.572774  
     190A      1.578893   191A      1.589252   192A      1.597427  
     193A      1.600545   194A      1.621776   195A      1.625764  
     196A      1.635054   197A      1.648080   198A      1.672211  
     199A      1.681310   200A      1.695257   201A      1.703269  
     202A      1.713240   203A      1.720647   204A      1.744914  
     205A      1.757823   206A      1.771180   207A      1.771645  
     208A      1.780310   209A      1.786603   210A      1.794917  
     211A      1.819063   212A      1.820227   213A      1.839745  
     214A      1.855835   215A      1.869997   216A      1.885471  
     217A      1.925462   218A      1.938178   219A      1.968165  
     220A      2.004985   221A      2.029986   222A      2.058213  
     223A      2.104323   224A      2.121315   225A      2.138507  
     226A      2.152641   227A      2.174601   228A      2.203141  
     229A      2.256998   230A      2.337824   231A      2.384653  
     232A      2.406698   233A      2.434349   234A      2.521925  
     235A      2.535524   236A      2.570174   237A      2.604616  
     238A      2.654150   239A      2.682578   240A      2.839072  
     241A      2.889603   242A      2.970916   243A      3.015478  
     244A      3.085816   245A      3.148286   246A      3.153048  
     247A      3.204361   248A      3.220614   249A      3.256814  
     250A      3.334632   251A      3.366928   252A      3.396680  
     253A      3.518328   254A      3.762400   255A      3.797467  
     256A      3.847231   257A      3.943603   258A      4.018029  
     259A      4.074245   260A      4.077394   261A      4.084566  
     262A      4.091552   263A      4.097756   264A      4.103188  
     265A      4.117410   266A      4.156293   267A      4.181566  
     268A      4.188733   269A      4.209688   270A      4.212037  
     271A      4.234071   272A      4.263235   273A      4.419032  
     274A      4.469412   275A      4.476751   276A      5.213283  
     277A      5.232331   278A      5.436086   279A      5.533088  
     280A      5.681155   281A      5.856798   282A      7.596216  
     283A      7.617249   284A      7.634213   285A     23.561235  
     286A     23.808827   287A     23.957802   288A     50.022303  
     289A     50.048129  

    Final Occupation by Irrep:
              A 
    DOCC [    72 ]

  Energy converged.

  @DF-RKS Final Energy: -7990.30677415739046

   => Energetics <=

    Nuclear Repulsion Energy =           1475.6801454073186051
    One-Electron Energy =              -14057.0489012310918042
    Two-Electron Energy =                4737.1124987554539985
    DFT Exchange-Correlation Energy =    -146.0505170890720308
    Empirical Dispersion Energy =           0.0000000000000000
    VV10 Nonlocal Energy =                  0.0000000000000000
    Total Energy =                      -7990.3067741573904641



Properties will be evaluated at   0.000000,   0.000000,   0.000000 [a0]

Properties computed using the SCF density matrix

  Nuclear Dipole Moment: [e a0]
     X:     5.3247      Y:    15.3134      Z:   -23.2192

  Electronic Dipole Moment: [e a0]
     X:    -4.9496      Y:   -14.7428      Z:    22.7911

  Dipole Moment: [e a0]
     X:     0.3752      Y:     0.5705      Z:    -0.4280     Total:     0.8059

  Dipole Moment: [D]
     X:     0.9535      Y:     1.4502      Z:    -1.0880     Total:     2.0484


*** tstop() called on localhost.localdomain at Tue Mar 19 13:19:33 2019
Module time:
	user time   =    1026.19 seconds =      17.10 minutes
	system time =      84.77 seconds =       1.41 minutes
	total time  =         50 seconds =       0.83 minutes
Total time:
	user time   =    2322.95 seconds =      38.72 minutes
	system time =     183.14 seconds =       3.05 minutes
	total time  =        118 seconds =       1.97 minutes

*** tstart() called on localhost.localdomain
*** at Tue Mar 19 13:19:33 2019


         ------------------------------------------------------------
                                   SCF GRAD                          
                          Rob Parrish, Justin Turney,                
                       Andy Simmonett, and Alex Sokolov              
         ------------------------------------------------------------

  ==> Geometry <==

    Molecular point group: c1
    Full point group: C1

    Geometry (in Angstrom), charge = 0, multiplicity = 1:

       Center              X                  Y                   Z               Mass       
    ------------   -----------------  -----------------  -----------------  -----------------
         C            0.171130651889     0.445935139542    -1.538404893832    12.000000000000
         O           -0.863618726797     0.035288669766    -2.362385201356    15.994914619560
         BR           1.576590939764     0.444493109194     0.927046281608    78.918337087000
         BR          -1.605496152182     0.673628066587     0.705325229991    78.918337087000
         H            1.233650912088     3.489086409100    -2.105382134827     1.007825032070
         C            1.331707107760     2.394637083688    -2.208611302846    12.000000000000
         H            1.261385546725     2.114773274402    -3.280812647765     1.007825032070
         H            2.303863743364     2.061757100598    -1.786849323367     1.007825032070
         O            0.258203669563     1.828622498273    -1.473361332881    15.994914619560
         H           -1.643883022155     0.559727374010    -2.132461378635     1.007825032070
         C            0.000790704046    -0.082047018849    -0.084402808271    12.000000000000
         BR          -0.131220753713    -2.020266932172    -0.128900350175    78.918337087000
         H            1.088671377952    -0.009195325566    -1.928565093958     1.007825032070

  Nuclear repulsion = 1475.680145407318605

  ==> Basis Set <==

  Basis Set: ANONYMOUS58475730
    Blend: 6-311PPGSS + DEF2-TZVPP
    Number of shells: 123
    Number of basis function: 289
    Number of Cartesian functions: 315
    Spherical Harmonics?: true
    Max angular momentum: 3

  ==> DFJKGrad: Density-Fitted SCF Gradients <==

    Gradient:                    1
    J tasked:                  Yes
    K tasked:                  Yes
    wK tasked:                  No
    OpenMP threads:             32
    Integrals threads:          32
    Memory (MB):               375
    Schwarz Cutoff:          0E+00
    Fitting Condition:       1E-12

   => Auxiliary Basis Set <=

  Basis Set: (ANONYMOUS58475730 AUX)
    Blend: AUG-CC-PVTZ-JKFIT + DEF2-TZVPP-JKFIT
    Number of shells: 400
    Number of basis function: 1548
    Number of Cartesian functions: 2043
    Spherical Harmonics?: true
    Max angular momentum: 5

  ==> DFT Potential <==

   => Composite Functional: M06-2X <= 

    Hybrid M06-2X Meta-GGA XC Functional

    Y. Zhao and D. G. Truhlar,  Theor. Chem. Acc., 120, 215, 2008


    Deriv               =              1
    GGA                 =           TRUE
    Meta                =           TRUE

    Exchange Hybrid     =           TRUE
    MP2 Hybrid          =          FALSE

   => Exchange Functionals <=

    1.0000   XC_HYB_MGGA_X_M06_2X

   => Exact (HF) Exchange <=

    0.5400               HF 

   => Correlation Functionals <=

    1.0000   XC_MGGA_C_M06_2X

   => Molecular Quadrature <=

    Radial Scheme       =       TREUTLER
    Pruning Scheme      =           FLAT
    Nuclear Scheme      =       TREUTLER

    BS radius alpha     =              1
    Pruning alpha       =              1
    Radial Points       =             75
    Spherical Points    =            302
    Total Points        =         294016
    Total Blocks        =           2280
    Max Points          =            256
    Max Functions       =            254


  -Total Gradient:
     Atom            X                  Y                   Z
    ------   -----------------  -----------------  -----------------
       1        0.000376712020     0.000957953305     0.000003464217
       2        0.000741941574    -0.002984602525    -0.000283513024
       3        0.000868066586     0.000466674669    -0.001025092870
       4       -0.000450734290    -0.000121165871    -0.000179084962
       5       -0.002005130910     0.010230015375     0.001217438465
       6       -0.004360894915    -0.003437375276     0.004911575190
       7       -0.001459625994    -0.002850332428    -0.009672035185
       8        0.008611647948    -0.003833744615     0.004555914164
       9       -0.000918766563    -0.000008127528    -0.000565576509
      10       -0.001530760780     0.001670270324     0.000297015639
      11       -0.000280360475     0.001894471613     0.000211062403
      12       -0.000469367512    -0.001153909014    -0.000657406649
      13        0.000685260682    -0.000298488918    -0.000204213639


*** tstop() called on localhost.localdomain at Tue Mar 19 13:19:50 2019
Module time:
	user time   =     248.42 seconds =       4.14 minutes
	system time =      11.93 seconds =       0.20 minutes
	total time  =         17 seconds =       0.28 minutes
Total time:
	user time   =    2571.43 seconds =      42.86 minutes
	system time =     195.08 seconds =       3.25 minutes
	total time  =        135 seconds =       2.25 minutes

			-----------------------------------------
			 OPTKING 2.0: for geometry optimizations 
			  - R.A. King,  Bethel University        
			-----------------------------------------

	Previous internal coordinate definitions found.
	---Fragment 1 Geometry and Gradient---
	 C           0.3233900650        0.8426952868       -2.9071639308
	 O          -1.6320028769        0.0666859215       -4.4642610509
	 BR          2.9793250997        0.8399702443        1.7518635847
	 BR         -3.0339480350        1.2729725613        1.3328715193
	 H           2.3312623674        6.5934177672       -3.9785956399
	 C           2.5165617229        4.5252082758       -4.1736704964
	 H           2.3836732313        3.9963423218       -6.1998373976
	 H           4.3536715224        3.8961562727       -3.3766558619
	 O           0.4879342220        3.4555957222       -2.7842494139
	 H          -3.1064887064        1.0577314460       -4.0297679946
	 C           0.0014942141       -0.1550463956       -0.1594981925
	 BR         -0.2479712875       -3.8177512171       -0.2435863603
	 H           2.0572907530       -0.0173766470       -3.6444598570
	             0.0003767120        0.0009579533        0.0000034642
	             0.0007419416       -0.0029846025       -0.0002835130
	             0.0008680666        0.0004666747       -0.0010250929
	            -0.0004507343       -0.0001211659       -0.0001790850
	            -0.0020051309        0.0102300154        0.0012174385
	            -0.0043608949       -0.0034373753        0.0049115752
	            -0.0014596260       -0.0028503324       -0.0096720352
	             0.0086116479       -0.0038337446        0.0045559142
	            -0.0009187666       -0.0000081275       -0.0005655765
	            -0.0015307608        0.0016702703        0.0002970156
	            -0.0002803605        0.0018944716        0.0002110624
	            -0.0004693675       -0.0011539090       -0.0006574066
	             0.0006852607       -0.0002984889       -0.0002042136

	---Fragment 1 Intrafragment Coordinates---
	 - Coordinate -           - BOHR/RAD -       - ANG/DEG -
	 R(1,2)           =         2.617308	       1.385020
	 R(1,9)           =         2.620960	       1.386952
	 R(1,11)          =         2.940880	       1.556246
	 R(1,13)          =         2.071169	       1.096015
	 R(2,10)          =         1.828952	       0.967839
	 R(3,11)          =         3.675709	       1.945102
	 R(4,11)          =         3.671555	       1.942903
	 R(5,6)           =         2.085637	       1.103671
	 R(6,7)           =         2.098264	       1.110353
	 R(6,8)           =         2.099026	       1.110757
	 R(6,9)           =         2.681397	       1.418934
	 R(11,12)         =         3.672153	       1.943220
	 B(1,2,10)        =         1.875820	     107.476570
	 B(1,9,6)         =         2.005201	     114.889571
	 B(1,11,3)        =         1.881072	     107.777465
	 B(1,11,4)        =         1.915907	     109.773375
	 B(1,11,12)       =         1.901211	     108.931339
	 B(2,1,9)         =         1.950217	     111.739219
	 B(2,1,11)        =         1.953547	     111.929970
	 B(2,1,13)        =         1.865589	     106.890367
	 B(3,11,4)        =         1.931709	     110.678801
	 B(3,11,12)       =         1.914469	     109.691017
	 B(4,11,12)       =         1.918866	     109.942909
	 B(5,6,7)         =         1.912014	     109.550353
	 B(5,6,8)         =         1.917105	     109.842016
	 B(5,6,9)         =         1.854471	     106.253381
	 B(7,6,8)         =         1.924691	     110.276683
	 B(7,6,9)         =         1.930406	     110.604100
	 B(8,6,9)         =         1.923946	     110.233963
	 B(9,1,11)        =         1.876830	     107.534447
	 B(9,1,13)        =         1.958561	     112.217253
	 B(11,1,13)       =         1.858073	     106.459728
	 D(1,9,6,5)       =         3.087830	     176.919631
	 D(1,9,6,7)       =         1.014107	      58.104072
	 D(1,9,6,8)       =        -1.119027	     -64.115502
	 D(2,1,9,6)       =        -1.834141	    -105.088520
	 D(2,1,11,3)      =         3.066323	     175.687355
	 D(2,1,11,4)      =        -1.111651	     -63.692932
	 D(2,1,11,12)     =         0.990248	      56.737040
	 D(3,11,1,9)      =        -1.068560	     -61.223952
	 D(3,11,1,13)     =         1.033752	      59.229611
	 D(4,11,1,9)      =         1.036652	      59.395761
	 D(4,11,1,13)     =         3.138963	     179.849324
	 D(6,9,1,11)      =         2.298699	     131.705757
	 D(6,9,1,13)      =         0.261103	      14.960126
	 D(9,1,2,10)      =        -0.808344	     -46.314686
	 D(9,1,11,12)     =         3.138551	     179.825733
	 D(10,2,1,11)     =         1.297849	      74.361293
	 D(10,2,1,13)     =        -2.957315	    -169.441648
	 D(12,11,1,13)    =        -1.042323	     -59.720705
	 R(3,6)           =         6.993360	       3.700727
	 R(4,6)           =         8.468010	       4.481078

	Current energy   :     -7990.3067741574

	Energy change for the previous step:
		Projected    :        -0.0039137005
		Actual       :        -0.0002300859
	Energy ratio indicates iffy step: Trust radius decreased to 1.250e-01.


	Performing BFGS update.
	Previous computed or guess Hessian on step 1.
	Steps to be used in Hessian update: 1
	Taking RFO optimization step.
	Going to follow RFO solution 1.
	Using RFO vector 1.

	Determining step-restricting scale parameter for RS-RFO.
	Maximum step size allowed    0.12500

	 Iter      |step|        alpha        rfo_root  
	------------------------------------------------
	    0     0.15113       1.00000           1
	    1     0.13061       1.85707           1
	    2     0.12538       2.15400           1
	    3     0.12500       2.17687           1
	------------------------------------------------
	Norm of target step-size    0.12500
	Projected energy change by RFO approximation:        -0.0016356093

	Back-transformation to cartesian coordinates...
	Could not converge backtransformation.
	Using first guess instead.

	--- Internal Coordinate Step in ANG or DEG, aJ/ANG or AJ/DEG ---
	 ---------------------------------------------------------------------------
	   Coordinate                Previous        Force       Change         New 
	   ----------                --------       ------       ------       ------
	    1 R(1,2)          =      1.385020    -0.006898    -0.001197     1.383823
	    2 R(1,9)          =      1.386952    -0.003135    -0.000580     1.386372
	    3 R(1,11)         =      1.556246     0.003919    -0.000370     1.555876
	    4 R(1,13)         =      1.096015    -0.006227    -0.001082     1.094933
	    5 R(2,10)         =      0.967839    -0.018317    -0.002079     0.965760
	    6 R(3,11)         =      1.945102    -0.006163    -0.000319     1.944783
	    7 R(4,11)         =      1.942903    -0.001438    -0.000233     1.942670
	    8 R(5,6)          =      1.103671    -0.085674    -0.014068     1.089603
	    9 R(6,7)          =      1.110353    -0.082979    -0.013732     1.096621
	   10 R(6,8)          =      1.110757    -0.086287    -0.014030     1.096727
	   11 R(6,9)          =      1.418934    -0.003265    -0.000336     1.418598
	   12 R(11,12)        =      1.943220    -0.010148    -0.001186     1.942034
	   13 B(1,2,10)       =    107.476570     0.000039     0.096532   107.573102
	   14 B(1,9,6)        =    114.889571    -0.000089    -0.211703   114.677868
	   15 B(1,11,3)       =    107.777465     0.000034     0.002532   107.779996
	   16 B(1,11,4)       =    109.773375    -0.000006    -0.126811   109.646564
	   17 B(1,11,12)      =    108.931339     0.000103     0.204442   109.135781
	   18 B(2,1,9)        =    111.739219    -0.000060    -0.103244   111.635975
	   19 B(2,1,11)       =    111.929970     0.000079     0.213817   112.143786
	   20 B(2,1,13)       =    106.890367    -0.000019    -0.041276   106.849091
	   21 B(3,11,4)       =    110.678801    -0.000063    -0.241127   110.437674
	   22 B(3,11,12)      =    109.691017    -0.000048     0.009477   109.700494
	   23 B(4,11,12)      =    109.942909    -0.000016     0.153768   110.096677
	   24 B(5,6,7)        =    109.550353    -0.000061    -0.227567   109.322785
	   25 B(5,6,8)        =    109.842016    -0.000103    -0.398027   109.443988
	   26 B(5,6,9)        =    106.253381     0.000091     0.319890   106.573270
	   27 B(7,6,8)        =    110.276683    -0.000083    -0.324950   109.951733
	   28 B(7,6,9)        =    110.604100     0.000073     0.289391   110.893491
	   29 B(8,6,9)        =    110.233963     0.000087     0.350029   110.583991
	   30 B(9,1,11)       =    107.534447     0.000013    -0.076451   107.457996
	   31 B(9,1,13)       =    112.217253    -0.000018    -0.118721   112.098531
	   32 B(11,1,13)      =    106.459728     0.000010     0.140982   106.600709
	   33 D(1,9,6,5)      =    176.919631     0.000003     1.822302   178.741932
	   34 D(1,9,6,7)      =     58.104072    -0.000001     1.747429    59.851501
	   35 D(1,9,6,8)      =    -64.115502    -0.000002     1.723710   -62.391792
	   36 D(2,1,9,6)      =   -105.088520     0.000023     2.259127  -102.829393
	   37 D(2,1,11,3)     =    175.687355     0.000014     1.151942   176.839297
	   38 D(2,1,11,4)     =    -63.692932     0.000000     0.787508   -62.905424
	   39 D(2,1,11,12)    =     56.737040     0.000009     1.025078    57.762118
	   40 D(3,11,1,9)     =    -61.223952     0.000010     1.106610   -60.117341
	   41 D(3,11,1,13)    =     59.229611     0.000008     1.002810    60.232421
	   42 D(4,11,1,9)     =     59.395761    -0.000003     0.742176    60.137938
	   43 D(4,11,1,13)    =    179.849324    -0.000005     0.638376   180.487700
	   44 D(6,9,1,11)     =    131.705757     0.000007     2.109681   133.815438
	   45 D(6,9,1,13)     =     14.960126     0.000005     2.051641    17.011767
	   46 D(9,1,2,10)     =    -46.314686    -0.000012    -1.182160   -47.496845
	   47 D(9,1,11,12)    =    179.825733     0.000006     0.979746   180.805479
	   48 D(10,2,1,11)    =     74.361293    -0.000005    -1.203330    73.157964
	   49 D(10,2,1,13)    =   -169.441648     0.000004    -0.942999  -170.384646
	   50 D(12,11,1,13)   =    -59.720705     0.000004     0.875946   -58.844759
	   51 R(3,6)          =      3.700727     0.008925     0.022732     3.723458
	   52 R(4,6)          =      4.481078    -0.001082     0.012057     4.493135
	 ---------------------------------------------------------------------------
	Successfully symmetrized geometry.

  ==> Convergence Check <==

  Measures of convergence in internal coordinates in au.
  Criteria marked as inactive (o), active & met (*), and active & unmet ( ).
  ---------------------------------------------------------------------------------------------
   Step     Total Energy     Delta E     MAX Force     RMS Force      MAX Disp      RMS Disp   
  ---------------------------------------------------------------------------------------------
    Convergence Criteria    1.00e-06 *    3.00e-04 *             o    1.20e-03 *             o
  ---------------------------------------------------------------------------------------------
      2   -7990.30677416   -2.30e-04      1.05e-02      2.59e-03 o    4.30e-02      1.72e-02 o  ~
  ---------------------------------------------------------------------------------------------

	Writing optimization data to binary file.
	Structure for next step:
	Cartesian Geometry (in Angstrom)
	    C     0.1796222974   0.4473809173  -1.5294843463
	    O    -0.8482946662   0.0497906092  -2.3663087694
	   BR     1.5490806885   0.4578387548   0.9555439494
	   BR    -1.6263036862   0.6590210227   0.6888542947
	    H     1.2669108485   3.4715639220  -2.0846866925
	    C     1.3287406237   2.3919805232  -2.2185207690
	    H     1.2143270689   2.1510638224  -3.2822158428
	    H     2.3000812520   2.0342164218  -1.8561518007
	    O     0.2735825051   1.8286042269  -1.4558483351
	    H    -1.6316044595   0.5629507689  -2.1301201293
	    C    -0.0049910272  -0.0858727790  -0.0795499763
	   BR    -0.1168135960  -2.0241861544  -0.1235268599
	    H     1.0974381493  -0.0079126072  -1.9157496793
			--------------------------
			 OPTKING Finished Execution 
			--------------------------

    Structure for next step:
    Molecular point group: c1
    Full point group: C1

    Geometry (in Angstrom), charge = 0, multiplicity = 1:

    C            0.186674526726     0.448161846499    -1.534655043485
    O           -0.841242436935     0.050571538383    -2.371479466593
    BR           1.556132917845     0.458619683952     0.950373252196
    BR          -1.619251456893     0.659801951808     0.683683597528
    H            1.273963077849     3.472344851159    -2.089857389677
    C            1.335792852974     2.392761452324    -2.223691466195
    H            1.221379298249     2.151844751548    -3.287386540033
    H            2.307133481270     2.034997350993    -1.861322497909
    O            0.280634734382     1.829385156093    -1.461019032281
    H           -1.624552230239     0.563731698058    -2.135290826486
    C            0.002061202071    -0.085091849889    -0.084720673518
    BR          -0.109761366689    -2.023405225256    -0.128697557063
    H            1.104490378640    -0.007131678066    -1.920920376532

gradient() will perform analytic gradient computation.

*** tstart() called on localhost.localdomain
*** at Tue Mar 19 13:19:50 2019

   => Loading Basis Set <=

    Name: ANONYMOUS58475730
    Role: ORBITAL
    Keyword: BASIS
    atoms 1, 6, 11       entry C          line   119 file /root/psi4conda/share/psi4/basis/6-311ppgss.gbs 
    atoms 2, 9           entry O          line   161 file /root/psi4conda/share/psi4/basis/6-311ppgss.gbs 
    atoms 3-4, 12        entry BR         line  1545 file /root/psi4conda/share/psi4/basis/def2-tzvpp.gbs 
    atoms 5, 7-8, 10, 13 entry H          line    42 file /root/psi4conda/share/psi4/basis/6-311ppgss.gbs 


         ---------------------------------------------------------
                                   SCF
            by Justin Turney, Rob Parrish, Andy Simmonett
                             and Daniel Smith
                              RKS Reference
                       32 Threads,    500 MiB Core
         ---------------------------------------------------------

  ==> Geometry <==

    Molecular point group: c1
    Full point group: C1

    Geometry (in Angstrom), charge = 0, multiplicity = 1:

       Center              X                  Y                   Z               Mass       
    ------------   -----------------  -----------------  -----------------  -----------------
         C            0.186674526726     0.448161846499    -1.534655043485    12.000000000000
         O           -0.841242436935     0.050571538383    -2.371479466593    15.994914619560
         BR           1.556132917845     0.458619683952     0.950373252196    78.918337087000
         BR          -1.619251456893     0.659801951808     0.683683597528    78.918337087000
         H            1.273963077849     3.472344851159    -2.089857389677     1.007825032070
         C            1.335792852974     2.392761452324    -2.223691466195    12.000000000000
         H            1.221379298249     2.151844751548    -3.287386540033     1.007825032070
         H            2.307133481270     2.034997350993    -1.861322497909     1.007825032070
         O            0.280634734382     1.829385156093    -1.461019032281    15.994914619560
         H           -1.624552230239     0.563731698058    -2.135290826486     1.007825032070
         C            0.002061202071    -0.085091849889    -0.084720673518    12.000000000000
         BR          -0.109761366689    -2.023405225256    -0.128697557063    78.918337087000
         H            1.104490378640    -0.007131678066    -1.920920376532     1.007825032070

  Running in c1 symmetry.

  Rotational constants: A =      0.02207  B =      0.01907  C =      0.01719 [cm^-1]
  Rotational constants: A =    661.65206  B =    571.56178  C =    515.41016 [MHz]
  Nuclear repulsion = 1475.968920542850583

  Charge       = 0
  Multiplicity = 1
  Electrons    = 144
  Nalpha       = 72
  Nbeta        = 72

  ==> Algorithm <==

  SCF Algorithm Type is DF.
  DIIS enabled.
  MOM disabled.
  Fractional occupation disabled.
  Guess Type is READ.
  Energy threshold   = 1.00e-08
  Density threshold  = 1.00e-08
  Integral threshold = 0.00e+00

  ==> Primary Basis <==

  Basis Set: ANONYMOUS58475730
    Blend: 6-311PPGSS + DEF2-TZVPP
    Number of shells: 123
    Number of basis function: 289
    Number of Cartesian functions: 315
    Spherical Harmonics?: true
    Max angular momentum: 3

  ==> DFT Potential <==

   => Composite Functional: M06-2X <= 

    Hybrid M06-2X Meta-GGA XC Functional

    Y. Zhao and D. G. Truhlar,  Theor. Chem. Acc., 120, 215, 2008


    Deriv               =              1
    GGA                 =           TRUE
    Meta                =           TRUE

    Exchange Hybrid     =           TRUE
    MP2 Hybrid          =          FALSE

   => Exchange Functionals <=

    1.0000   XC_HYB_MGGA_X_M06_2X

   => Exact (HF) Exchange <=

    0.5400               HF 

   => Correlation Functionals <=

    1.0000   XC_MGGA_C_M06_2X

   => Molecular Quadrature <=

    Radial Scheme       =       TREUTLER
    Pruning Scheme      =           FLAT
    Nuclear Scheme      =       TREUTLER

    BS radius alpha     =              1
    Pruning alpha       =              1
    Radial Points       =             75
    Spherical Points    =            302
    Total Points        =         294017
    Total Blocks        =           2278
    Max Points          =            256
    Max Functions       =            254

   => Loading Basis Set <=

    Name: (ANONYMOUS58475730 AUX)
    Role: JKFIT
    Keyword: DF_BASIS_SCF
    atoms 1, 6, 11       entry C          line   162 file /root/psi4conda/share/psi4/basis/aug-cc-pvtz-jkfit.gbs 
    atoms 2, 9           entry O          line   286 file /root/psi4conda/share/psi4/basis/aug-cc-pvtz-jkfit.gbs 
    atoms 3-4, 12        entry BR         line  3129 file /root/psi4conda/share/psi4/basis/def2-tzvpp-jkfit.gbs 
    atoms 5, 7-8, 10, 13 entry H          line    70 file /root/psi4conda/share/psi4/basis/aug-cc-pvtz-jkfit.gbs 

  Reading orbitals from file 180, no projection.

  ==> Pre-Iterations <==

   -------------------------------------------------------
    Irrep   Nso     Nmo     Nalpha   Nbeta   Ndocc  Nsocc
   -------------------------------------------------------
     A        289     289       0       0       0       0
   -------------------------------------------------------
    Total     289     289      72      72      72       0
   -------------------------------------------------------

  ==> Integral Setup <==

  ==> DiskDFJK: Density-Fitted J/K Matrices <==

    J tasked:                  Yes
    K tasked:                  Yes
    wK tasked:                  No
    OpenMP threads:             32
    Integrals threads:          32
    Memory (MB):               375
    Algorithm:                Disk
    Integral Cache:           NONE
    Schwarz Cutoff:          1E-12
    Fitting Condition:       1E-12

   => Auxiliary Basis Set <=

  Basis Set: (ANONYMOUS58475730 AUX)
    Blend: AUG-CC-PVTZ-JKFIT + DEF2-TZVPP-JKFIT
    Number of shells: 400
    Number of basis function: 1548
    Number of Cartesian functions: 2043
    Spherical Harmonics?: true
    Max angular momentum: 5

  Minimum eigenvalue in the overlap matrix is 4.8465423504E-05.
  Using Symmetric Orthogonalization.

  SCF Guess: Orbitals guess was supplied from a previous computation.

  ==> Iterations <==

                           Total Energy        Delta E     RMS |[F,P]|

   @DF-RKS iter   0: -7990.32078754992108   -7.99032e+03   8.95203e-04 
   @DF-RKS iter   1: -7990.30735903290497    1.34285e-02   5.79167e-05 
   @DF-RKS iter   2: -7990.30741301567195   -5.39828e-05   1.02289e-04 DIIS
   @DF-RKS iter   3: -7990.30742958665360   -1.65710e-05   5.86061e-05 DIIS
   @DF-RKS iter   4: -7990.30743467075899   -5.08411e-06   1.11647e-05 DIIS
   @DF-RKS iter   5: -7990.30743562227326   -9.51514e-07   2.06221e-06 DIIS
   @DF-RKS iter   6: -7990.30743565750436   -3.52311e-08   1.00568e-06 DIIS
   @DF-RKS iter   7: -7990.30743566395086   -6.44650e-09   3.61587e-07 DIIS
   @DF-RKS iter   8: -7990.30743566514320   -1.19235e-09   6.82688e-08 DIIS
   @DF-RKS iter   9: -7990.30743566520596   -6.27551e-11   3.27675e-08 DIIS
   @DF-RKS iter  10: -7990.30743566522051   -1.45519e-11   1.54192e-08 DIIS
   @DF-RKS iter  11: -7990.30743566521869    1.81899e-12   3.02653e-09 DIIS

  ==> Post-Iterations <==

    Orbital Energies [Eh]
    ---------------------

    Doubly Occupied:                                                      

       1A   -485.395402     2A   -485.393845     3A   -485.391744  
       4A    -63.380821     5A    -63.379293     6A    -63.377177  
       7A    -57.199300     8A    -57.197780     9A    -57.196624  
      10A    -57.196511    11A    -57.195692    12A    -57.195075  
      13A    -57.194980    14A    -57.192929    15A    -57.192863  
      16A    -19.656679    17A    -19.653011    18A    -10.712384  
      19A    -10.682941    20A    -10.600516    21A     -9.046188  
      22A     -9.044698    23A     -9.042596    24A     -6.870722  
      25A     -6.869274    26A     -6.867272    27A     -6.860937  
      28A     -6.860532    29A     -6.859386    30A     -6.859055  
      31A     -6.857177    32A     -6.856934    33A     -2.904587  
      34A     -2.903120    35A     -2.901140    36A     -2.901105  
      37A     -2.900753    38A     -2.899640    39A     -2.899323  
      40A     -2.897553    41A     -2.897303    42A     -2.891657  
      43A     -2.891646    44A     -2.890119    45A     -2.890108  
      46A     -2.887904    47A     -2.887896    48A     -1.233133  
      49A     -1.158129    50A     -0.984248    51A     -0.875461  
      52A     -0.872025    53A     -0.843648    54A     -0.774545  
      55A     -0.693757    56A     -0.628056    57A     -0.604097  
      58A     -0.579493    59A     -0.536108    60A     -0.518631  
      61A     -0.494388    62A     -0.481863    63A     -0.474043  
      64A     -0.422732    65A     -0.412714    66A     -0.387027  
[...]
         O           -0.475182084592     0.240412111683    -2.430649354148    15.994914619560
         BR           1.444638124659     0.283791294842     1.228533694417    78.918337087000
         BR          -1.633788306516     0.716228693203     0.520096114461    78.918337087000
         H            1.345075049656     3.579093023709    -2.084141676866     1.007825032070
         C            1.295672489750     2.520840970798    -2.329966469453    12.000000000000
         H            0.749481405028     2.383437745690    -3.266023280480     1.007825032070
         H            2.310715469399     2.123751939036    -2.435830907300     1.007825032070
         O            0.625050858424     1.886190839804    -1.251482182183    15.994914619560
         H           -1.315816076499     0.646709314008    -2.180861252246     1.007825032070
         C            0.046719455259    -0.078036145315    -0.065344020232    12.000000000000
         BR          -0.171187619362    -1.994322243339    -0.269738447547    78.918337087000
         H            1.384966912070     0.034915745568    -1.742240312356     1.007825032070

  Nuclear repulsion = 1473.000383970708299

  ==> Basis Set <==

  Basis Set: ANONYMOUS58475730
    Blend: 6-311PPGSS + DEF2-TZVPP
    Number of shells: 123
    Number of basis function: 289
    Number of Cartesian functions: 315
    Spherical Harmonics?: true
    Max angular momentum: 3

  ==> DFJKGrad: Density-Fitted SCF Gradients <==

    Gradient:                    1
    J tasked:                  Yes
    K tasked:                  Yes
    wK tasked:                  No
    OpenMP threads:             32
    Integrals threads:          32
    Memory (MB):               375
    Schwarz Cutoff:          0E+00
    Fitting Condition:       1E-12

   => Auxiliary Basis Set <=

  Basis Set: (ANONYMOUS58475730 AUX)
    Blend: AUG-CC-PVTZ-JKFIT + DEF2-TZVPP-JKFIT
    Number of shells: 400
    Number of basis function: 1548
    Number of Cartesian functions: 2043
    Spherical Harmonics?: true
    Max angular momentum: 5

  ==> DFT Potential <==

   => Composite Functional: M06-2X <= 

    Hybrid M06-2X Meta-GGA XC Functional

    Y. Zhao and D. G. Truhlar,  Theor. Chem. Acc., 120, 215, 2008


    Deriv               =              1
    GGA                 =           TRUE
    Meta                =           TRUE

    Exchange Hybrid     =           TRUE
    MP2 Hybrid          =          FALSE

   => Exchange Functionals <=

    1.0000   XC_HYB_MGGA_X_M06_2X

   => Exact (HF) Exchange <=

    0.5400               HF 

   => Correlation Functionals <=

    1.0000   XC_MGGA_C_M06_2X

   => Molecular Quadrature <=

    Radial Scheme       =       TREUTLER
    Pruning Scheme      =           FLAT
    Nuclear Scheme      =       TREUTLER

    BS radius alpha     =              1
    Pruning alpha       =              1
    Radial Points       =             75
    Spherical Points    =            302
    Total Points        =         294010
    Total Blocks        =           2259
    Max Points          =            256
    Max Functions       =            252


  -Total Gradient:
     Atom            X                  Y                   Z
    ------   -----------------  -----------------  -----------------
       1        0.000083851876     0.000066160644    -0.000075274581
       2        0.000021667831     0.000005078497    -0.000128701206
       3        0.000137657622     0.000086354357    -0.000050670683
       4       -0.000069401081    -0.000003495098    -0.000107810844
       5       -0.000048147794     0.000081319647    -0.000078990615
       6       -0.000025316121     0.000083942196    -0.000008277545
       7       -0.000009965394     0.000097561933    -0.000094189736
       8       -0.000032169979     0.000130884185    -0.000089179813
       9        0.000021454161     0.000034106545    -0.000124910719
      10        0.000018798457     0.000017488077    -0.000104938545
      11        0.000022027628    -0.000157689944    -0.000255473860
      12        0.000093268349     0.000123633302    -0.000152462168
      13        0.000034185653     0.000066077013    -0.000118918817


*** tstop() called on localhost.localdomain at Tue Mar 19 13:28:11 2019
Module time:
	user time   =     206.48 seconds =       3.44 minutes
	system time =       9.18 seconds =       0.15 minutes
	total time  =         11 seconds =       0.18 minutes
Total time:
	user time   =   13258.44 seconds =     220.97 minutes
	system time =     880.28 seconds =      14.67 minutes
	total time  =        636 seconds =      10.60 minutes

			-----------------------------------------
			 OPTKING 2.0: for geometry optimizations 
			  - R.A. King,  Bethel University        
			-----------------------------------------

	Previous internal coordinate definitions found.
	---Fragment 1 Geometry and Gradient---
	 C           0.8538386151        0.9926846457       -2.7199174773
	 O          -0.8979640031        0.4543130501       -4.5932616044
	 BR          2.7299704167        0.5362878261        2.3215922275
	 BR         -3.0874124584        1.3534760787        0.9828392191
	 H           2.5418234720        6.7635056189       -3.9384569914
	 C           2.4484661635        4.7636990594       -4.4029985261
	 H           1.4163145972        4.5040445941       -6.1718895437
	 H           4.3666194082        4.0133095390       -4.6030533208
	 O           1.1811749415        3.5643841216       -2.3649585845
	 H          -2.4865320258        1.2221034911       -4.1212305006
	 C           0.0882869755       -0.1474669431       -0.1234823027
	 BR         -0.3234977179       -3.7687228606       -0.5097317934
	 H           2.6172081669        0.0659811968       -3.2923570480
	             0.0000838519        0.0000661606       -0.0000752746
	             0.0000216678        0.0000050785       -0.0001287012
	             0.0001376576        0.0000863544       -0.0000506707
	            -0.0000694011       -0.0000034951       -0.0001078108
	            -0.0000481478        0.0000813196       -0.0000789906
	            -0.0000253161        0.0000839422       -0.0000082775
	            -0.0000099654        0.0000975619       -0.0000941897
	            -0.0000321700        0.0001308842       -0.0000891798
	             0.0000214542        0.0000341065       -0.0001249107
	             0.0000187985        0.0000174881       -0.0001049385
	             0.0000220276       -0.0001576899       -0.0002554739
	             0.0000932683        0.0001236333       -0.0001524622
	             0.0000341857        0.0000660770       -0.0001189188

	---Fragment 1 Intrafragment Coordinates---
	 - Coordinate -           - BOHR/RAD -       - ANG/DEG -
	 R(1,2)           =         2.620701	       1.386815
	 R(1,9)           =         2.616636	       1.384664
	 R(1,11)          =         2.937259	       1.554331
	 R(1,13)          =         2.072665	       1.096807
	 R(2,10)          =         1.826435	       0.966508
	 R(3,11)          =         3.663933	       1.938870
	 R(4,11)          =         3.682641	       1.948770
	 R(5,6)           =         2.055174	       1.087551
	 R(6,7)           =         2.064396	       1.092432
	 R(6,8)           =         2.069400	       1.095080
	 R(6,9)           =         2.682907	       1.419733
	 R(11,12)         =         3.665003	       1.939436
	 B(1,2,10)        =         1.886296	     108.076821
	 B(1,9,6)         =         1.977285	     113.290073
	 B(1,11,3)        =         1.906619	     109.241228
	 B(1,11,4)        =         1.909332	     109.396673
	 B(1,11,12)       =         1.896166	     108.642313
	 B(2,1,9)         =         1.963290	     112.488221
	 B(2,1,11)        =         1.958343	     112.204817
	 B(2,1,13)        =         1.853991	     106.225867
	 B(3,11,4)        =         1.923257	     110.194509
	 B(3,11,12)       =         1.913174	     109.616813
	 B(4,11,12)       =         1.915033	     109.723324
	 B(5,6,7)         =         1.916416	     109.802577
	 B(5,6,8)         =         1.909844	     109.425996
	 B(5,6,9)         =         1.859521	     106.542695
	 B(7,6,8)         =         1.912393	     109.572063
	 B(7,6,9)         =         1.937465	     111.008594
	 B(8,6,9)         =         1.927487	     110.436888
	 B(9,1,11)        =         1.869408	     107.109170
	 B(9,1,13)        =         1.950305	     111.744268
	 B(11,1,13)       =         1.867455	     106.997295
	 D(1,9,6,5)       =         3.112223	     178.317258
	 D(1,9,6,7)       =         1.026304	      58.802898
	 D(1,9,6,8)       =        -1.098445	     -62.936260
	 D(2,1,9,6)       =        -1.226239	     -70.258306
	 D(2,1,11,3)      =         3.086053	     176.817788
	 D(2,1,11,4)      =        -1.090536	     -62.483138
	 D(2,1,11,12)     =         0.999682	      57.277539
	 D(3,11,1,9)      =        -1.034473	     -59.270934
	 D(3,11,1,13)     =         1.059248	      60.690437
	 D(4,11,1,9)      =         1.072123	      61.428139
	 D(4,11,1,13)     =        -3.117341	    -178.610489
	 D(6,9,1,11)      =         2.897321	     166.004284
	 D(6,9,1,13)      =         0.857449	      49.128185
	 D(9,1,2,10)      =        -1.022143	     -58.564466
	 D(9,1,11,12)     =        -3.120844	    -178.811183
	 D(10,2,1,11)     =         1.087201	      62.292054
	 D(10,2,1,13)     =         3.122112	     178.883852
	 D(12,11,1,13)    =        -1.027123	     -58.849812
	 R(3,6)           =         7.947979	       4.205889
	 R(4,6)           =         8.442915	       4.467798

	Current energy   :     -7990.3088419121

	Energy change for the previous step:
		Projected    :        -0.0000046916
		Actual       :        -0.0000000068
	Energy ratio indicates iffy step: Trust radius decreased to 7.031e-02.


	Performing BFGS update.
	Previous computed or guess Hessian on step 1.
	Steps to be used in Hessian update: 12 11
	Taking RFO optimization step.
	Going to follow RFO solution 1.
	Using RFO vector 1.
	Norm of target step-size    0.00267
	Projected energy change by RFO approximation:         0.0000000211

	Back-transformation to cartesian coordinates...
	Could not converge backtransformation.
	Using first guess instead.

	--- Internal Coordinate Step in ANG or DEG, aJ/ANG or AJ/DEG ---
	 ---------------------------------------------------------------------------
	   Coordinate                Previous        Force       Change         New 
	   ----------                --------       ------       ------       ------
	    1 R(1,2)          =      1.386815    -0.000205    -0.000013     1.386802
	    2 R(1,9)          =      1.384664    -0.000156     0.000019     1.384683
	    3 R(1,11)         =      1.554331     0.000189     0.000057     1.554387
	    4 R(1,13)         =      1.096807     0.000037     0.000001     1.096808
	    5 R(2,10)         =      0.966508    -0.000130     0.000006     0.966514
	    6 R(3,11)         =      1.938870    -0.001144    -0.000335     1.938535
	    7 R(4,11)         =      1.948770    -0.000850    -0.000245     1.948525
	    8 R(5,6)          =      1.087551     0.000049    -0.000044     1.087507
	    9 R(6,7)          =      1.092432    -0.000036    -0.000034     1.092398
	   10 R(6,8)          =      1.095080     0.000210     0.000009     1.095089
	   11 R(6,9)          =      1.419733     0.000029     0.000021     1.419754
	   12 R(11,12)        =      1.939436     0.000891     0.000266     1.939702
	   13 B(1,2,10)       =    108.076821     0.000001     0.007917   108.084738
	   14 B(1,9,6)        =    113.290073    -0.000008    -0.023960   113.266112
	   15 B(1,11,3)       =    109.241228     0.000003     0.012320   109.253547
	   16 B(1,11,4)       =    109.396673     0.000001     0.005089   109.401762
	   17 B(1,11,12)      =    108.642313     0.000000    -0.002953   108.639361
	   18 B(2,1,9)        =    112.488221    -0.000002    -0.003877   112.484344
	   19 B(2,1,11)       =    112.204817     0.000004     0.020345   112.225162
	   20 B(2,1,13)       =    106.225867    -0.000000    -0.010575   106.215292
	   21 B(3,11,4)       =    110.194509    -0.000002    -0.004386   110.190123
	   22 B(3,11,12)      =    109.616813    -0.000003    -0.014739   109.602074
	   23 B(4,11,12)      =    109.723324     0.000001     0.004768   109.728092
	   24 B(5,6,7)        =    109.802577     0.000001     0.010787   109.813364
	   25 B(5,6,8)        =    109.425996     0.000001     0.000719   109.426715
	   26 B(5,6,9)        =    106.542695    -0.000001    -0.006924   106.535771
	   27 B(7,6,8)        =    109.572063     0.000001     0.005408   109.577472
	   28 B(7,6,9)        =    111.008594    -0.000001    -0.000995   111.007599
	   29 B(8,6,9)        =    110.436888    -0.000001    -0.009163   110.427725
	   30 B(9,1,11)       =    107.109170     0.000001     0.005579   107.114749
	   31 B(9,1,13)       =    111.744268    -0.000001    -0.011974   111.732294
	   32 B(11,1,13)      =    106.997295    -0.000001     0.000618   106.997914
	   33 D(1,9,6,5)      =    178.317258     0.000000     0.033657   178.350915
	   34 D(1,9,6,7)      =     58.802898    -0.000000     0.025401    58.828299
	   35 D(1,9,6,8)      =    -62.936260    -0.000000     0.025472   -62.910788
	   36 D(2,1,9,6)      =    -70.258306     0.000000     0.034909   -70.223397
	   37 D(2,1,11,3)     =    176.817788    -0.000000    -0.031364   176.786424
	   38 D(2,1,11,4)     =    -62.483138    -0.000000    -0.026010   -62.509148
	   39 D(2,1,11,12)    =     57.277539     0.000000    -0.018990    57.258549
	   40 D(3,11,1,9)     =    -59.270934    -0.000000    -0.019207   -59.290141
	   41 D(3,11,1,13)    =     60.690437    -0.000000    -0.029966    60.660471
	   42 D(4,11,1,9)     =     61.428139    -0.000000    -0.013853    61.414286
	   43 D(4,11,1,13)    =   -178.610489    -0.000000    -0.024612  -178.635101
	   44 D(6,9,1,11)     =    166.004284    -0.000000     0.007840   166.012124
	   45 D(6,9,1,13)     =     49.128185    -0.000000     0.010281    49.138466
	   46 D(9,1,2,10)     =    -58.564466    -0.000000    -0.058371   -58.622837
	   47 D(9,1,11,12)    =   -178.811183     0.000000    -0.006833  -178.818017
	   48 D(10,2,1,11)    =     62.292054     0.000000    -0.039136    62.252918
	   49 D(10,2,1,13)    =    178.883852     0.000000    -0.033983   178.849869
	   50 D(12,11,1,13)   =    -58.849812     0.000000    -0.017592   -58.867404
	   51 R(3,6)          =      4.205889     0.000169     0.000587     4.206476
	   52 R(4,6)          =      4.467798     0.000101    -0.000023     4.467776
	 ---------------------------------------------------------------------------
	Successfully symmetrized geometry.

  ==> Convergence Check <==

  Measures of convergence in internal coordinates in au.
  Criteria marked as inactive (o), active & met (*), and active & unmet ( ).
  ---------------------------------------------------------------------------------------------
   Step     Total Energy     Delta E     MAX Force     RMS Force      MAX Disp      RMS Disp   
  ---------------------------------------------------------------------------------------------
    Convergence Criteria    1.00e-06 *    3.00e-04 *             o    1.20e-03 *             o
  ---------------------------------------------------------------------------------------------
     13   -7990.30884191   -6.80e-09 *    1.39e-04 *    3.62e-05 o    1.11e-03 *    3.70e-04 o  ~
  ---------------------------------------------------------------------------------------------


  **** Optimization is complete! (in 13 steps) ****

  ==> Optimization Summary <==

  Measures of convergence in internal coordinates in au.
  --------------------------------------------------------------------------------------------------------------- ~
   Step         Total Energy             Delta E       MAX Force       RMS Force        MAX Disp        RMS Disp  ~
  --------------------------------------------------------------------------------------------------------------- ~
      1   -7990.306544071525  -7990.306544071525      0.00870746      0.00181441      0.20044127      0.05606766  ~
      2   -7990.306774157390     -0.000230085865      0.01047331      0.00258608      0.04295631      0.01717935  ~
      3   -7990.307435665219     -0.000661507828      0.00164044      0.00049861      0.07823127      0.01729793  ~
      4   -7990.307623082782     -0.000187417563      0.00133356      0.00037269      0.24005864      0.05181119  ~
      5   -7990.307994741655     -0.000371658873      0.00352075      0.00095531      0.25301504      0.05186822  ~
      6   -7990.308353042632     -0.000358300977      0.00669423      0.00163568      0.24562889      0.05188194  ~
      7   -7990.308272462707      0.000080579925      0.00773451      0.00200683      0.07946350      0.02123764  ~
      8   -7990.308654750060     -0.000382287353      0.00403717      0.00099614      0.11707393      0.02759365  ~
      9   -7990.308753337031     -0.000098586971      0.00221487      0.00059654      0.03637852      0.01299233  ~
     10   -7990.308823260470     -0.000069923439      0.00074242      0.00023836      0.03277897      0.01080240  ~
     11   -7990.308837647259     -0.000014386789      0.00070216      0.00020274      0.01736608      0.00478560  ~
     12   -7990.308841905254     -0.000004257995      0.00027270      0.00006544      0.00629625      0.00126950  ~
     13   -7990.308841912050     -0.000000006797      0.00013880      0.00003624      0.00110949      0.00037030  ~
  --------------------------------------------------------------------------------------------------------------- ~

	Writing optimization data to binary file.
	Final energy is  -7990.3088419120504
	Final (previous) structure:
	Cartesian Geometry (in Angstrom)
	    C     0.4518319349   0.5253060898  -1.4393183382
	    O    -0.4751820846   0.2404121117  -2.4306493541
	   BR     1.4446381247   0.2837912948   1.2285336944
	   BR    -1.6337883065   0.7162286932   0.5200961145
	    H     1.3450750497   3.5790930237  -2.0841416769
	    C     1.2956724898   2.5208409708  -2.3299664695
	    H     0.7494814050   2.3834377457  -3.2660232805
	    H     2.3107154694   2.1237519390  -2.4358309073
	    O     0.6250508584   1.8861908398  -1.2514821822
	    H    -1.3158160765   0.6467093140  -2.1808612522
	    C     0.0467194553  -0.0780361453  -0.0653440202
	   BR    -0.1711876194  -1.9943222433  -0.2697384475
	    H     1.3849669121   0.0349157456  -1.7422403124
	Saving final (previous) structure.
	Removing binary optimization data file.
			--------------------------
			 OPTKING Finished Execution 
			--------------------------

    Final optimized geometry and variables:
    Molecular point group: c1
    Full point group: C1

    Geometry (in Angstrom), charge = 0, multiplicity = 1:

    C            0.451831934907     0.525306089802    -1.439318338218
    O           -0.475182084592     0.240412111683    -2.430649354148
    BR           1.444638124659     0.283791294842     1.228533694417
    BR          -1.633788306516     0.716228693203     0.520096114461
    H            1.345075049656     3.579093023709    -2.084141676866
    C            1.295672489750     2.520840970798    -2.329966469453
    H            0.749481405028     2.383437745690    -3.266023280480
    H            2.310715469399     2.123751939036    -2.435830907300
    O            0.625050858424     1.886190839804    -1.251482182183
    H           -1.315816076499     0.646709314008    -2.180861252246
    C            0.046719455259    -0.078036145315    -0.065344020232
    BR          -0.171187619362    -1.994322243339    -0.269738447547
    H            1.384966912070     0.034915745568    -1.742240312356

	Removing binary optimization data file.
	Cleaning optimization helper files.

    Psi4 stopped on: Tuesday, 19 March 2019 01:28PM
    Psi4 wall time for execution: 0:10:37.03

*** Psi4 exiting successfully. Buy a developer a beer!
