[Molden Format]
[Title]
CLPOs

[Atoms] AU
C    1   6         -3.8271351536        -0.3719364740         0.6766522355 
O    2   8         -4.1190202314        -0.1359775854         2.9282933563 
O    3   8         -5.1482020193        -0.2751796409        -1.3252501639 
N    4   7         -1.1793888880        -0.8539022990        -0.5813080916 
H    5   1         -2.3803502068        -0.5631453778        -2.2614724799 
H    6   1         -0.6401641905        -2.7113911478        -0.4187948108 
C    7   6          0.9033224160         0.8192432892         0.2213729948 
H    8   1          0.6942713799         1.0893885703         2.2737757768 
C    9   6          3.3872793148        -0.5840058304        -0.1756158483 
O   10   8          3.5423594166        -2.8126953926        -0.6941954125 
O   11   8          5.4072532695         0.9173940223         0.1860174592 
H   12   1          6.9132210194        -0.1112894179        -0.0165501831 
C   13   6          0.7675841671         3.3859314949        -1.1071782742 
H   14   1         -1.0604632234         4.2764173322        -0.7306724036 
H   15   1          2.2573673994         4.6326123344        -0.4101287315 
H   16   1          0.9857440961         3.1689425362        -3.1541875148 
[GTO]
  1 0 
s   6 1.0  
     3047.5249000000         0.0018347000 
      457.3695100000         0.0140373000 
      103.9486900000         0.0688426000 
       29.2101550000         0.2321844000 
        9.2866630000         0.4679413000 
        3.1639270000         0.3623120000 
s   3 1.0  
        7.8682724000        -0.1193324000 
        1.8812885000        -0.1608542000 
        0.5442493000         1.1434564000 
p   3 1.0  
        7.8682724000         0.0689991000 
        1.8812885000         0.3164240000 
        0.5442493000         0.7443083000 
s   1 1.0  
        0.1687144000         1.0000000000 
p   1 1.0  
        0.1687144000         1.0000000000 
d   1 1.0  
        0.8000000000         1.0000000000 
s2   1 1.0  
        0.8000000000         1.0000000000 
s   1 1.0  
        0.0438000000         1.0000000000 
p   1 1.0  
        0.0438000000         1.0000000000 

  2 0 
s   6 1.0  
     5484.6717000000         0.0018311000 
      825.2349500000         0.0139501000 
      188.0469600000         0.0684451000 
       52.9645000000         0.2327143000 
       16.8975700000         0.4701930000 
        5.7996353000         0.3585209000 
s   3 1.0  
       15.5396160000        -0.1107775000 
        3.5999336000        -0.1480263000 
        1.0137618000         1.1307670000 
p   3 1.0  
       15.5396160000         0.0708743000 
        3.5999336000         0.3397528000 
        1.0137618000         0.7271586000 
s   1 1.0  
        0.2700058000         1.0000000000 
p   1 1.0  
        0.2700058000         1.0000000000 
d   1 1.0  
        0.8000000000         1.0000000000 
s2   1 1.0  
        0.8000000000         1.0000000000 
s   1 1.0  
        0.0845000000         1.0000000000 
p   1 1.0  
        0.0845000000         1.0000000000 

  3 0 
s   6 1.0  
     5484.6717000000         0.0018311000 
      825.2349500000         0.0139501000 
      188.0469600000         0.0684451000 
       52.9645000000         0.2327143000 
       16.8975700000         0.4701930000 
        5.7996353000         0.3585209000 
s   3 1.0  
       15.5396160000        -0.1107775000 
        3.5999336000        -0.1480263000 
        1.0137618000         1.1307670000 
p   3 1.0  
       15.5396160000         0.0708743000 
        3.5999336000         0.3397528000 
        1.0137618000         0.7271586000 
s   1 1.0  
        0.2700058000         1.0000000000 
p   1 1.0  
        0.2700058000         1.0000000000 
d   1 1.0  
        0.8000000000         1.0000000000 
s2   1 1.0  
        0.8000000000         1.0000000000 
s   1 1.0  
        0.0845000000         1.0000000000 
p   1 1.0  
        0.0845000000         1.0000000000 

  4 0 
s   6 1.0  
     4173.5110000000         0.0018348000 
      627.4579000000         0.0139950000 
      142.9021000000         0.0685870000 
       40.2343300000         0.2322410000 
       12.8202100000         0.4690700000 
        4.3904370000         0.3604550000 
s   3 1.0  
       11.6263580000        -0.1149610000 
        2.7162800000        -0.1691180000 
        0.7722180000         1.1458520000 
p   3 1.0  
       11.6263580000         0.0675800000 
        2.7162800000         0.3239070000 
        0.7722180000         0.7408950000 
s   1 1.0  
        0.2120313000         1.0000000000 
p   1 1.0  
        0.2120313000         1.0000000000 
d   1 1.0  
        0.8000000000         1.0000000000 
s2   1 1.0  
        0.8000000000         1.0000000000 
s   1 1.0  
        0.0639000000         1.0000000000 
p   1 1.0  
        0.0639000000         1.0000000000 

  5 0 
s   3 1.0  
       18.7311370000         0.0334946000 
        2.8253937000         0.2347269500 
        0.6401217000         0.8137573300 
s   1 1.0  
        0.1612778000         1.0000000000 

  6 0 
s   3 1.0  
       18.7311370000         0.0334946000 
        2.8253937000         0.2347269500 
        0.6401217000         0.8137573300 
s   1 1.0  
        0.1612778000         1.0000000000 

  7 0 
s   6 1.0  
     3047.5249000000         0.0018347000 
      457.3695100000         0.0140373000 
      103.9486900000         0.0688426000 
       29.2101550000         0.2321844000 
        9.2866630000         0.4679413000 
        3.1639270000         0.3623120000 
s   3 1.0  
        7.8682724000        -0.1193324000 
        1.8812885000        -0.1608542000 
        0.5442493000         1.1434564000 
p   3 1.0  
        7.8682724000         0.0689991000 
        1.8812885000         0.3164240000 
        0.5442493000         0.7443083000 
s   1 1.0  
        0.1687144000         1.0000000000 
p   1 1.0  
        0.1687144000         1.0000000000 
d   1 1.0  
        0.8000000000         1.0000000000 
s2   1 1.0  
        0.8000000000         1.0000000000 
s   1 1.0  
        0.0438000000         1.0000000000 
p   1 1.0  
        0.0438000000         1.0000000000 

  8 0 
s   3 1.0  
       18.7311370000         0.0334946000 
        2.8253937000         0.2347269500 
        0.6401217000         0.8137573300 
s   1 1.0  
        0.1612778000         1.0000000000 

  9 0 
s   6 1.0  
     3047.5249000000         0.0018347000 
      457.3695100000         0.0140373000 
      103.9486900000         0.0688426000 
       29.2101550000         0.2321844000 
        9.2866630000         0.4679413000 
        3.1639270000         0.3623120000 
s   3 1.0  
        7.8682724000        -0.1193324000 
        1.8812885000        -0.1608542000 
        0.5442493000         1.1434564000 
p   3 1.0  
        7.8682724000         0.0689991000 
        1.8812885000         0.3164240000 
        0.5442493000         0.7443083000 
s   1 1.0  
        0.1687144000         1.0000000000 
p   1 1.0  
        0.1687144000         1.0000000000 
d   1 1.0  
        0.8000000000         1.0000000000 
s2   1 1.0  
        0.8000000000         1.0000000000 
s   1 1.0  
        0.0438000000         1.0000000000 
p   1 1.0  
        0.0438000000         1.0000000000 

 10 0 
s   6 1.0  
     5484.6717000000         0.0018311000 
      825.2349500000         0.0139501000 
      188.0469600000         0.0684451000 
       52.9645000000         0.2327143000 
       16.8975700000         0.4701930000 
        5.7996353000         0.3585209000 
s   3 1.0  
       15.5396160000        -0.1107775000 
        3.5999336000        -0.1480263000 
        1.0137618000         1.1307670000 
p   3 1.0  
       15.5396160000         0.0708743000 
        3.5999336000         0.3397528000 
        1.0137618000         0.7271586000 
s   1 1.0  
        0.2700058000         1.0000000000 
p   1 1.0  
        0.2700058000         1.0000000000 
d   1 1.0  
        0.8000000000         1.0000000000 
s2   1 1.0  
        0.8000000000         1.0000000000 
s   1 1.0  
        0.0845000000         1.0000000000 
p   1 1.0  
        0.0845000000         1.0000000000 

 11 0 
s   6 1.0  
     5484.6717000000         0.0018311000 
      825.2349500000         0.0139501000 
      188.0469600000         0.0684451000 
       52.9645000000         0.2327143000 
       16.8975700000         0.4701930000 
        5.7996353000         0.3585209000 
s   3 1.0  
       15.5396160000        -0.1107775000 
        3.5999336000        -0.1480263000 
        1.0137618000         1.1307670000 
p   3 1.0  
       15.5396160000         0.0708743000 
        3.5999336000         0.3397528000 
        1.0137618000         0.7271586000 
s   1 1.0  
        0.2700058000         1.0000000000 
p   1 1.0  
        0.2700058000         1.0000000000 
d   1 1.0  
        0.8000000000         1.0000000000 
s2   1 1.0  
        0.8000000000         1.0000000000 
s   1 1.0  
        0.0845000000         1.0000000000 
p   1 1.0  
        0.0845000000         1.0000000000 

 12 0 
s   3 1.0  
       18.7311370000         0.0334946000 
        2.8253937000         0.2347269500 
        0.6401217000         0.8137573300 
s   1 1.0  
        0.1612778000         1.0000000000 

 13 0 
s   6 1.0  
     3047.5249000000         0.0018347000 
      457.3695100000         0.0140373000 
      103.9486900000         0.0688426000 
       29.2101550000         0.2321844000 
        9.2866630000         0.4679413000 
        3.1639270000         0.3623120000 
s   3 1.0  
        7.8682724000        -0.1193324000 
        1.8812885000        -0.1608542000 
        0.5442493000         1.1434564000 
p   3 1.0  
        7.8682724000         0.0689991000 
        1.8812885000         0.3164240000 
        0.5442493000         0.7443083000 
s   1 1.0  
        0.1687144000         1.0000000000 
p   1 1.0  
        0.1687144000         1.0000000000 
d   1 1.0  
        0.8000000000         1.0000000000 
s2   1 1.0  
        0.8000000000         1.0000000000 
s   1 1.0  
        0.0438000000         1.0000000000 
p   1 1.0  
        0.0438000000         1.0000000000 

 14 0 
s   3 1.0  
       18.7311370000         0.0334946000 
        2.8253937000         0.2347269500 
        0.6401217000         0.8137573300 
s   1 1.0  
        0.1612778000         1.0000000000 

 15 0 
s   3 1.0  
       18.7311370000         0.0334946000 
        2.8253937000         0.2347269500 
        0.6401217000         0.8137573300 
s   1 1.0  
        0.1612778000         1.0000000000 

 16 0 
s   3 1.0  
       18.7311370000         0.0334946000 
        2.8253937000         0.2347269500 
        0.6401217000         0.8137573300 
s   1 1.0  
        0.1612778000         1.0000000000 

[5D]
[9G]
[MO]
 Sym=     1a
 Ene=  0.00000000000000E+00
 Spin= Beta
 Occup= 0.000131
  1      -0.050594398901
  2      -0.000665346802
  3      -0.030473116580
  4       0.006849412408
  5      -0.219754727702
  6       1.222622077690
  7      -0.138945404942
  8      -0.092076901520
  9      -1.242926142414
 10       0.058483487637
 11       0.091945690208
 12      -0.075381208618
 13       0.039923861067
 14      -0.025259219535
 15      -0.255115482787
 16      -3.813888213850
 17      -3.196035317814
 18      -0.031822697006
 19      -5.789553031019
 20       0.040212644139
 21       0.060960413296
 22      -0.027506329587
 23      -0.001527811025
 24       0.042493040974
 25      -0.477994049295
 26       0.136096680263
 27       0.072256154339
 28      -0.508013883752
 29       0.038458305511
 30      -0.009817886936
 31      -0.007200834737
 32      -0.022154518020
 33       0.001041701198
 34       0.297446311943
 35       3.847217295804
 36      -0.033985034199
 37      -0.427602244489
 38       1.221438056824
 39      -0.050697932914
 40      -0.013783520228
 41       0.073532272685
 42       0.001806348181
 43       0.030114942671
 44       0.151336221146
 45      -0.685463305013
 46       0.011313790738
 47      -0.585613253982
 48      -0.020417149659
 49      -0.065177441441
 50       0.003824746769
 51      -0.018603654979
 52      -0.004729283233
 53      -0.430498844678
 54      -2.676638582991
 55       1.223275323897
 56       0.041580866382
 57       0.934797111247
 58       0.006792322422
 59       0.034931561644
 60      -0.043620377668
 61       0.022270049329
 62      -0.010014917753
 63      -0.494861660473
 64       0.459524789600
 65      -0.255901493773
 66       0.031772610197
 67       0.023486835445
 68      -0.008365028851
 69       0.010460996161
 70      -0.003388579941
 71       0.001884714895
 72       0.016113075209
 73      -2.315362079545
 74       1.947660194830
 75      -0.989764950527
 76       2.001031781886
 77      -0.023667384516
 78       0.787133218063
 79       0.021371883412
 80      -0.481828354822
 81      -0.000315009914
 82      -0.058172640021
 83       0.021883333683
 84      -0.049349210299
 85       0.040894872219
 86       0.140178885496
 87      -0.326379912176
 88       0.579365408524
 89      -0.286133713540
 90      -0.009150920872
 91       0.015877213496
 92      -0.031612459381
 93      -0.009525890738
 94      -0.004153456717
 95       0.031346637903
 96       1.221994181657
 97      -5.084730800774
 98      -0.544388948202
 99       1.373799555026
100       0.114515604814
101      -0.618711514187
102       0.001027146501
103       0.044987616314
104      -0.014758457289
105      -0.009175001630
106       0.039817202298
107       0.068379886952
108       0.129380918889
109       0.376177515809
110       0.015098943257
111       0.000434729140
112      -0.007864439702
113       0.008709141036
114       0.018199208804
115       0.016812171213
116      -0.001979449405
117       3.624900821774
118      -0.360636619248
119       0.673193627215
120      -0.060817045293
121      -0.012010581447
122      -0.043645896148
123       0.000175085532
124       0.002045287557
125      -0.000908686333
126       0.374330497829
127      -0.033245302864
128       0.047983138134
129       0.040403677102
130       0.001772319854
131       0.013874543771
132       0.002868235337
133      -0.002936417495
134      -0.006862786944
135      -0.069113410415
136      -0.642072424059
137       0.366853759890
138      -0.003741280951
139      -0.170264802998
140       0.014097065083
141       0.067408596815
142      -0.013373138702
143       0.002537393164
144       0.002562832150
145      -0.405024054572
146       0.145752507764
147       0.015613778124
148       0.010647649671
149       0.003137040273
150      -0.003703874533
151      -0.008065476671
152      -0.013680976310
153      -0.011637937234
154       0.082716669416
155       0.274466300888
156      -0.095282256620
157       0.107851199951
158       0.029910380272
159      -0.002528023173
160      -0.018067641729
161       0.016648730329
162       0.093887318671
163      -0.009528249888
164       0.016376219680
165      -0.013009568651
166      -0.803684389498
167       0.008213353735
168       0.311270056035
169      -0.090764857530
170       0.007139651610
171       0.005639683996
172       0.023503657738
173       0.015002604629
174       0.004119930389
175       0.026616128563
176       0.271224943755
177       0.855087527126
178      -0.133071726632
179       0.211048253133
180       0.062525497900
181      -0.163217629922
182       0.027500842715
183      -0.046984175985
184      -0.030621663019
185       0.349159970730
 Sym=     1a
 Ene=  1.00000000000000E+00
 Spin= Beta
 Occup= 0.000139
  1      -0.082824712551
  2       0.544821302757
  3       0.065944443051
  4      -0.087362688150
  5       0.064319676455
  6       0.652966861643
  7      -0.753520174623
  8       0.549320039395
  9       1.031149655372
 10       0.097062027161
 11       0.003322169683
 12      -0.023282228531
 13      -0.054658009677
 14      -0.011717900984
 15      -0.819130837725
 16     -15.833901096839
 17      -6.364142699535
 18       1.755572836809
 19       3.344906689861
 20       0.046191779787
 21       0.199566862200
 22       0.031252122992
 23      -0.004321800756
 24      -0.045580238843
 25      -1.436255635378
 26      -0.186987507186
 27       0.140974067722
 28       0.552142705196
 29      -0.038023978436
 30      -0.019219927542
 31       0.010626514765
 32      -0.007264664162
 33       0.011569999777
 34       0.273496931178
 35       0.283806750377
 36       0.901192026247
 37      -0.746857518052
 38      -0.253393576273
 39       0.051949022545
 40       0.135473626484
 41      -0.000127209447
 42       0.001012466224
 43       0.002263506786
 44      -0.875503832994
 45       0.103479996006
 46       0.002087240642
 47       0.037831390172
 48      -0.025165236705
 49       0.022840431325
 50      -0.041852202689
 51       0.032693608247
 52      -0.003068547156
 53       0.386086580381
 54       1.875155649397
 55       0.425950233437
 56      -0.293270058263
 57      -0.757716449546
 58      -0.053201931467
 59      -0.146767259772
 60      -0.024126462254
 61      -0.033504162035
 62       0.031076583800
 63       1.606033962335
 64       0.183304593514
 65       0.561926560838
 66      -0.095049809596
 67      -0.021000304797
 68      -0.012218413552
 69       0.010584686272
 70       0.072259057958
 71       0.025750075883
 72      -0.271921764998
 73       2.992551203686
 74      -5.461863038208
 75      -2.886834508013
 76       0.380956407454
 77       0.077724942869
 78      -1.083822800708
 79       0.139823280856
 80      -0.666988272444
 81       0.020317381373
 82       0.012486145112
 83      -0.002923360574
 84       0.018546359624
 85       0.042168633247
 86      -0.581974739485
 87       0.656530370460
 88       0.119712135901
 89       0.183211500703
 90       0.002162454480
 91      -0.035083902684
 92      -0.011582789940
 93      -0.003421101027
 94      -0.027584586373
 95       0.066773311429
 96       8.966008683094
 97      -5.867853681316
 98      -2.566483311256
 99      -1.371014750178
100       0.066463378044
101       0.030477104526
102      -0.012673618936
103       0.009984443674
104       0.008521201680
105       0.004853743761
106       0.016227682985
107       0.158782529884
108      -0.399869348873
109      -0.526786983720
110      -0.247017514482
111       0.018129343200
112      -0.002348390222
113      -0.001645460102
114      -0.014626996371
115      -0.018093541726
116      -0.093346539450
117       1.963387160360
118       0.255509271273
119       0.936862658093
120       0.624490355443
121       0.012518130267
122       0.063607829593
123       0.007258439829
124      -0.001990661641
125      -0.006914665996
126      -0.493195774074
127       0.025395659152
128      -0.056049981910
129       0.023579521092
130      -0.016389647263
131       0.002208178185
132       0.009410614538
133       0.012980352888
134       0.008603552286
135       0.082766927460
136       0.388774003014
137      -0.086244942081
138       0.015341554136
139      -0.092714520767
140      -0.001692362101
141      -0.024385391176
142      -0.002289368741
143       0.018755178444
144       0.001160925732
145       0.230383639121
146      -0.119642389724
147      -0.169772658212
148      -0.018969294346
149      -0.007230645675
150      -0.002109290584
151      -0.000974044025
152       0.006273759065
153       0.020685383517
154       0.017842110911
155       0.012104603001
156      -0.279278618243
157       0.389801658018
158       0.119118344314
159      -0.042636170006
160       0.278492014713
161      -0.007982243894
162      -0.053098293688
163       0.024927685364
164       0.039600812711
165       0.027334952293
166       0.395819829511
167      -0.340668035501
168      -0.465462005544
169      -0.108221125450
170       0.006681204314
171      -0.033599340040
172      -0.004080550581
173      -0.024300920549
174       0.004789569359
175      -0.013458324284
176       1.304706246252
177       0.026771536920
178      -0.335055383531
179       0.420234143207
180       0.004726736121
181      -0.179553762122
182       0.030093973652
183       0.188398737757
184      -0.025489775844
185      -0.139557295734
 Sym=     1a
 Ene=  2.00000000000000E+00
 Spin= Beta
 Occup= 0.006180
  1       0.029871193808
  2      -0.154367260697
  3       0.021104141329
  4       0.317064218855
  5       0.017359679534
  6       0.102639828072
  7      -0.111157108555
  8      -0.526925642728
  9       0.015137088453
 10       0.212078631995
 11       0.113013981546
 12       0.225982187248
 13      -0.216674373428
 14      -0.968436971960
 15       0.302485757317
 16      -0.026915422341
 17       0.301487605090
 18       0.034881046212
 19       0.003972455749
 20       0.004512644647
 21      -0.070926482281
 22      -0.010260023324
 23       0.017885968619
 24       0.093079344518
 25      -0.077161149607
 26      -0.005407123978
 27       0.002384792712
 28       0.088882066160
 29      -0.070920841814
 30       0.032104682486
 31       0.083260996129
 32      -0.001558298514
 33       0.053624518343
 34      -0.028087066253
 35       0.034416196471
 36      -0.084372355676
 37       0.021566796263
 38      -0.015251297958
 39       0.010705182481
 40      -0.027967355629
 41      -0.036095952835
 42       0.021032805491
 43      -0.049897632797
 44      -0.161250590618
 45      -0.043466820447
 46      -0.027560162341
 47      -0.055449198023
 48       0.002497354854
 49      -0.058384876785
 50      -0.086055013190
 51      -0.027915049639
 52      -0.008442134173
 53       0.019145978263
 54       0.100062738404
 55      -0.097531546923
 56       0.000825030021
 57       0.037071467797
 58       0.000796538891
 59      -0.016956332581
 60       0.007480505217
 61      -0.021389071454
 62      -0.000065752941
 63      -0.007683148497
 64       0.141522788960
 65       0.540766831241
 66      -0.047417782401
 67       0.004039662774
 68       0.017080961029
 69       0.048327798221
 70      -0.020405394246
 71      -0.041282218930
 72      -0.017318989260
 73       0.116981601273
 74      -0.074377279362
 75       0.145323245270
 76      -0.040241697934
 77      -0.003238449118
 78      -0.033224212587
 79       0.105598048049
 80       0.236962306319
 81       0.004030325318
 82       0.001771955522
 83       0.051611056126
 84       0.023428527675
 85      -0.009766277978
 86      -0.395323338647
 87      -0.087418408260
 88       0.068849070323
 89       0.227148980285
 90       0.012113506245
 91      -0.002204996271
 92       0.003282123848
 93      -0.019321831730
 94       0.001625843084
 95      -0.006359831781
 96      -0.099502606697
 97       0.095284278345
 98       0.021576138575
 99       0.005198544787
100      -0.024666334280
101      -0.048070158056
102      -0.000695443666
103      -0.030110352723
104      -0.008660658934
105       0.005001989482
106       0.001013675997
107       0.193225279375
108      -0.128916151528
109       0.081734819780
110      -0.033774289957
111      -0.005988641281
112       0.003013254749
113      -0.000355764682
114      -0.000568919944
115      -0.003307890752
116       0.029868840204
117      -0.073421585590
118       0.015074317766
119      -0.018459964440
120      -0.011944796665
121      -0.000147290850
122       0.000127321402
123      -0.001681527443
124      -0.003113663990
125      -0.000178500468
126       0.002182229098
127       0.026805107204
128      -0.003458210227
129       0.010105022877
130       0.001339906341
131       0.001673201539
132       0.001562510512
133       0.000536850608
134       0.002459181519
135      -0.000087150779
136       0.026352436027
137      -0.003056069089
138       0.005928996942
139       0.005137364186
140       0.000323599293
141       0.001180539939
142      -0.000379802199
143       0.001132222981
144      -0.000075417378
145      -0.008022558658
146       0.016717065165
147      -0.012225838143
148       0.007316605812
149      -0.000637175521
150      -0.001411174630
151      -0.000487820867
152      -0.004799136008
153      -0.000842384380
154       0.001254469642
155       0.008221057803
156      -0.000807764174
157      -0.004313454091
158       0.002550560886
159       0.000044922084
160       0.002204255648
161       0.006740318049
162       0.042996460549
163      -0.007511482607
164      -0.028496313622
165      -0.002320476517
166      -0.055061766039
167       0.145318865422
168       0.019929145794
169       0.003389031293
170       0.000106174509
171       0.004534417282
172       0.003826804025
173      -0.003390922542
174      -0.003360606968
175       0.012871036868
176      -0.043801911689
177      -0.010329458672
178       0.017628794951
179      -0.006035137639
180       0.028387601596
181       0.069547319937
182      -0.011266093855
183      -0.050869272158
184       0.010702201960
185      -0.005026511293
 Sym=     1a
 Ene=  3.00000000000000E+00
 Spin= Beta
 Occup= 1.996781
  1       0.049813960224
  2      -0.240240502925
  3       0.223654223833
  4      -0.019798449123
  5       0.239164918532
  6      -0.112536013008
  7       0.010431450294
  8      -0.012553311914
  9      -0.082252588476
 10      -0.019710125891
 11      -0.058221897725
 12       0.005025727991
 13      -0.003324300907
 14      -0.001532684342
 15       0.010795679494
 16      -0.036143760585
 17      -0.025745175008
 18       0.000932659808
 19      -0.002270164724
 20      -0.010711940664
 21       0.007483969436
 22      -0.009246339870
 23      -0.000538706090
 24      -0.031201475337
 25       0.125980500077
 26       0.008676913576
 27      -0.004572120195
 28      -0.051351720760
 29      -0.003502922871
 30      -0.010301251874
 31       0.000704333879
 32       0.001154407031
 33      -0.001447571096
 34      -0.021119749573
 35       0.027971585192
 36       0.010846323221
 37      -0.002643551249
 38      -0.000612137810
 39       0.051656459548
 40      -0.259622939280
 41      -0.192614880678
 42       0.015872344701
 43      -0.342201875183
 44      -0.227668414816
 45      -0.105699791824
 46       0.010506843770
 47      -0.173581809591
 48      -0.008824598462
 49      -0.033325463985
 50       0.003352312809
 51      -0.006604658679
 52       0.002031992178
 53       0.004486039551
 54       0.053857492685
 55       0.010928225776
 56       0.001660930857
 57      -0.013730369118
 58      -0.003664947154
 59       0.011210905214
 60      -0.050678488824
 61       0.007709103870
 62       0.004097849292
 63      -0.017233100711
 64       0.030868070734
 65      -0.010186402738
 66       0.031825685279
 67       0.004905396430
 68       0.003086524114
 69      -0.000379981154
 70      -0.010003915443
 71       0.004456799146
 72       0.002071867462
 73       0.016226810424
 74       0.032985639850
 75      -0.009618973550
 76       0.009093935411
 77       0.025853173354
 78       0.034905469456
 79      -0.003256209422
 80      -0.002958929375
 81       0.000122462541
 82      -0.002623880089
 83       0.007285195537
 84      -0.003141256846
 85      -0.004041921129
 86      -0.024588570427
 87      -0.041323497779
 88       0.030590594442
 89       0.002903116306
 90       0.000881743314
 91       0.000089823793
 92      -0.001166638837
 93       0.000042964224
 94      -0.000474413985
 95      -0.001375830836
 96       0.001967965592
 97      -0.005278425212
 98       0.003241239423
 99       0.007335188713
100       0.000805592909
101      -0.000258336527
102       0.000478667793
103       0.002506776197
104      -0.006180889866
105      -0.000812921765
106      -0.000615368274
107       0.024093064672
108       0.003656460011
109       0.034956301692
110       0.008519727712
111      -0.000271689866
112      -0.000338065737
113       0.000062025695
114       0.000483077746
115       0.000426380225
116       0.005333614269
117       0.006701227582
118      -0.005530792968
119      -0.004052813932
120      -0.001954140199
121      -0.000488024219
122       0.002208263883
123      -0.001908455054
124       0.000474130641
125       0.000209637697
126       0.013338843697
127       0.001628130088
128       0.002735535012
129       0.000449058281
130       0.000754162854
131      -0.000159501375
132      -0.000447518051
133      -0.000053353355
134       0.000183356098
135      -0.001499979569
136      -0.007491685667
137       0.003730408675
138      -0.000230906585
139      -0.000317744125
140       0.000703537913
141       0.000668948503
142       0.000193615290
143       0.000175660271
144       0.000717682604
145      -0.019640223846
146       0.007793691139
147       0.001821250141
148       0.000195952963
149       0.000049160308
150      -0.000000242729
151       0.000242624649
152      -0.000660813710
153      -0.000648714966
154       0.002562836286
155       0.001120605527
156       0.002530803900
157      -0.000843257033
158      -0.000453095815
159      -0.000304569975
160      -0.002896516651
161       0.000437183159
162       0.000379800462
163       0.002938376954
164       0.001547567754
165       0.001189605411
166      -0.019139068432
167       0.003055129644
168       0.002676336938
169      -0.009698188197
170      -0.000185464387
171       0.000254096594
172       0.000684606201
173      -0.000118421347
174      -0.000631631627
175      -0.000003240409
176       0.000000062834
177       0.002449024933
178      -0.000781269337
179       0.000254524109
180       0.001897275321
181       0.005314536088
182       0.000577355953
183       0.002063260783
184      -0.002118052028
185       0.002854109580
 Sym=     1a
 Ene=  4.00000000000000E+00
 Spin= Beta
 Occup= 0.094631
  1       0.087316575536
  2      -0.554056553939
  3       0.518479878794
  4      -0.038862800206
  5       0.640763929952
  6      -0.352372078294
  7       0.088473450133
  8      -0.027819265639
  9      -0.065723443319
 10      -0.036126389616
 11      -0.091956758396
 12       0.007715291950
 13       0.001696503698
 14      -0.004907993189
 15      -0.158051866423
 16       0.092011456915