[Molden Format]
[Title]
 created by molden2molden from mp2.molden

[Atoms] AU
C    1   6         -3.8271351536        -0.3719364740         0.6766522355 
O    2   8         -4.1190202314        -0.1359775854         2.9282933563 
O    3   8         -5.1482020193        -0.2751796409        -1.3252501639 
N    4   7         -1.1793888880        -0.8539022990        -0.5813080916 
H    5   1         -2.3803502068        -0.5631453778        -2.2614724799 
H    6   1         -0.6401641905        -2.7113911478        -0.4187948108 
C    7   6          0.9033224160         0.8192432892         0.2213729948 
H    8   1          0.6942713799         1.0893885703         2.2737757768 
C    9   6          3.3872793148        -0.5840058304        -0.1756158483 
O   10   8          3.5423594166        -2.8126953926        -0.6941954125 
O   11   8          5.4072532695         0.9173940223         0.1860174592 
H   12   1          6.9132210194        -0.1112894179        -0.0165501831 
C   13   6          0.7675841671         3.3859314949        -1.1071782742 
H   14   1         -1.0604632234         4.2764173322        -0.7306724036 
H   15   1          2.2573673994         4.6326123344        -0.4101287315 
H   16   1          0.9857440961         3.1689425362        -3.1541875148 
[GTO]
  1 0 
s   6 1.0  
     3047.5249000000         0.0018347000 
      457.3695100000         0.0140373000 
      103.9486900000         0.0688426000 
       29.2101550000         0.2321844000 
        9.2866630000         0.4679413000 
        3.1639270000         0.3623120000 
s   3 1.0  
        7.8682724000        -0.1193324000 
        1.8812885000        -0.1608542000 
        0.5442493000         1.1434564000 
p   3 1.0  
        7.8682724000         0.0689991000 
        1.8812885000         0.3164240000 
        0.5442493000         0.7443083000 
s   1 1.0  
        0.1687144000         1.0000000000 
p   1 1.0  
        0.1687144000         1.0000000000 
d   1 1.0  
        0.8000000000         1.0000000000 
s2   1 1.0  
        0.8000000000         1.0000000000 
s   1 1.0  
        0.0438000000         1.0000000000 
p   1 1.0  
        0.0438000000         1.0000000000 

  2 0 
s   6 1.0  
     5484.6717000000         0.0018311000 
      825.2349500000         0.0139501000 
      188.0469600000         0.0684451000 
       52.9645000000         0.2327143000 
       16.8975700000         0.4701930000 
        5.7996353000         0.3585209000 
s   3 1.0  
       15.5396160000        -0.1107775000 
        3.5999336000        -0.1480263000 
        1.0137618000         1.1307670000 
p   3 1.0  
       15.5396160000         0.0708743000 
        3.5999336000         0.3397528000 
        1.0137618000         0.7271586000 
s   1 1.0  
        0.2700058000         1.0000000000 
p   1 1.0  
        0.2700058000         1.0000000000 
d   1 1.0  
        0.8000000000         1.0000000000 
s2   1 1.0  
        0.8000000000         1.0000000000 
s   1 1.0  
        0.0845000000         1.0000000000 
p   1 1.0  
        0.0845000000         1.0000000000 

  3 0 
s   6 1.0  
     5484.6717000000         0.0018311000 
      825.2349500000         0.0139501000 
      188.0469600000         0.0684451000 
       52.9645000000         0.2327143000 
       16.8975700000         0.4701930000 
        5.7996353000         0.3585209000 
s   3 1.0  
       15.5396160000        -0.1107775000 
        3.5999336000        -0.1480263000 
        1.0137618000         1.1307670000 
p   3 1.0  
       15.5396160000         0.0708743000 
        3.5999336000         0.3397528000 
        1.0137618000         0.7271586000 
s   1 1.0  
        0.2700058000         1.0000000000 
p   1 1.0  
        0.2700058000         1.0000000000 
d   1 1.0  
        0.8000000000         1.0000000000 
s2   1 1.0  
        0.8000000000         1.0000000000 
s   1 1.0  
        0.0845000000         1.0000000000 
p   1 1.0  
        0.0845000000         1.0000000000 

  4 0 
s   6 1.0  
     4173.5110000000         0.0018348000 
      627.4579000000         0.0139950000 
      142.9021000000         0.0685870000 
       40.2343300000         0.2322410000 
       12.8202100000         0.4690700000 
        4.3904370000         0.3604550000 
s   3 1.0  
       11.6263580000        -0.1149610000 
        2.7162800000        -0.1691180000 
        0.7722180000         1.1458520000 
p   3 1.0  
       11.6263580000         0.0675800000 
        2.7162800000         0.3239070000 
        0.7722180000         0.7408950000 
s   1 1.0  
        0.2120313000         1.0000000000 
p   1 1.0  
        0.2120313000         1.0000000000 
d   1 1.0  
        0.8000000000         1.0000000000 
s2   1 1.0  
        0.8000000000         1.0000000000 
s   1 1.0  
        0.0639000000         1.0000000000 
p   1 1.0  
        0.0639000000         1.0000000000 

  5 0 
s   3 1.0  
       18.7311370000         0.0334946000 
        2.8253937000         0.2347269500 
        0.6401217000         0.8137573300 
s   1 1.0  
        0.1612778000         1.0000000000 

  6 0 
s   3 1.0  
       18.7311370000         0.0334946000 
        2.8253937000         0.2347269500 
        0.6401217000         0.8137573300 
s   1 1.0  
        0.1612778000         1.0000000000 

  7 0 
s   6 1.0  
     3047.5249000000         0.0018347000 
      457.3695100000         0.0140373000 
      103.9486900000         0.0688426000 
       29.2101550000         0.2321844000 
        9.2866630000         0.4679413000 
        3.1639270000         0.3623120000 
s   3 1.0  
        7.8682724000        -0.1193324000 
        1.8812885000        -0.1608542000 
        0.5442493000         1.1434564000 
p   3 1.0  
        7.8682724000         0.0689991000 
        1.8812885000         0.3164240000 
        0.5442493000         0.7443083000 
s   1 1.0  
        0.1687144000         1.0000000000 
p   1 1.0  
        0.1687144000         1.0000000000 
d   1 1.0  
        0.8000000000         1.0000000000 
s2   1 1.0  
        0.8000000000         1.0000000000 
s   1 1.0  
        0.0438000000         1.0000000000 
p   1 1.0  
        0.0438000000         1.0000000000 

  8 0 
s   3 1.0  
       18.7311370000         0.0334946000 
        2.8253937000         0.2347269500 
        0.6401217000         0.8137573300 
s   1 1.0  
        0.1612778000         1.0000000000 

  9 0 
s   6 1.0  
     3047.5249000000         0.0018347000 
      457.3695100000         0.0140373000 
      103.9486900000         0.0688426000 
       29.2101550000         0.2321844000 
        9.2866630000         0.4679413000 
        3.1639270000         0.3623120000 
s   3 1.0  
        7.8682724000        -0.1193324000 
        1.8812885000        -0.1608542000 
        0.5442493000         1.1434564000 
p   3 1.0  
        7.8682724000         0.0689991000 
        1.8812885000         0.3164240000 
        0.5442493000         0.7443083000 
s   1 1.0  
        0.1687144000         1.0000000000 
p   1 1.0  
        0.1687144000         1.0000000000 
d   1 1.0  
        0.8000000000         1.0000000000 
s2   1 1.0  
        0.8000000000         1.0000000000 
s   1 1.0  
        0.0438000000         1.0000000000 
p   1 1.0  
        0.0438000000         1.0000000000 

 10 0 
s   6 1.0  
     5484.6717000000         0.0018311000 
      825.2349500000         0.0139501000 
      188.0469600000         0.0684451000 
       52.9645000000         0.2327143000 
       16.8975700000         0.4701930000 
        5.7996353000         0.3585209000 
s   3 1.0  
       15.5396160000        -0.1107775000 
        3.5999336000        -0.1480263000 
        1.0137618000         1.1307670000 
p   3 1.0  
       15.5396160000         0.0708743000 
        3.5999336000         0.3397528000 
        1.0137618000         0.7271586000 
s   1 1.0  
        0.2700058000         1.0000000000 
p   1 1.0  
        0.2700058000         1.0000000000 
d   1 1.0  
        0.8000000000         1.0000000000 
s2   1 1.0  
        0.8000000000         1.0000000000 
s   1 1.0  
        0.0845000000         1.0000000000 
p   1 1.0  
        0.0845000000         1.0000000000 

 11 0 
s   6 1.0  
     5484.6717000000         0.0018311000 
      825.2349500000         0.0139501000 
      188.0469600000         0.0684451000 
       52.9645000000         0.2327143000 
       16.8975700000         0.4701930000 
        5.7996353000         0.3585209000 
s   3 1.0  
       15.5396160000        -0.1107775000 
        3.5999336000        -0.1480263000 
        1.0137618000         1.1307670000 
p   3 1.0  
       15.5396160000         0.0708743000 
        3.5999336000         0.3397528000 
        1.0137618000         0.7271586000 
s   1 1.0  
        0.2700058000         1.0000000000 
p   1 1.0  
        0.2700058000         1.0000000000 
d   1 1.0  
        0.8000000000         1.0000000000 
s2   1 1.0  
        0.8000000000         1.0000000000 
s   1 1.0  
        0.0845000000         1.0000000000 
p   1 1.0  
        0.0845000000         1.0000000000 

 12 0 
s   3 1.0  
       18.7311370000         0.0334946000 
        2.8253937000         0.2347269500 
        0.6401217000         0.8137573300 
s   1 1.0  
        0.1612778000         1.0000000000 

 13 0 
s   6 1.0  
     3047.5249000000         0.0018347000 
      457.3695100000         0.0140373000 
      103.9486900000         0.0688426000 
       29.2101550000         0.2321844000 
        9.2866630000         0.4679413000 
        3.1639270000         0.3623120000 
s   3 1.0  
        7.8682724000        -0.1193324000 
        1.8812885000        -0.1608542000 
        0.5442493000         1.1434564000 
p   3 1.0  
        7.8682724000         0.0689991000 
        1.8812885000         0.3164240000 
        0.5442493000         0.7443083000 
s   1 1.0  
        0.1687144000         1.0000000000 
p   1 1.0  
        0.1687144000         1.0000000000 
d   1 1.0  
        0.8000000000         1.0000000000 
s2   1 1.0  
        0.8000000000         1.0000000000 
s   1 1.0  
        0.0438000000         1.0000000000 
p   1 1.0  
        0.0438000000         1.0000000000 

 14 0 
s   3 1.0  
       18.7311370000         0.0334946000 
        2.8253937000         0.2347269500 
        0.6401217000         0.8137573300 
s   1 1.0  
        0.1612778000         1.0000000000 

 15 0 
s   3 1.0  
       18.7311370000         0.0334946000 
        2.8253937000         0.2347269500 
        0.6401217000         0.8137573300 
s   1 1.0  
        0.1612778000         1.0000000000 

 16 0 
s   3 1.0  
       18.7311370000         0.0334946000 
        2.8253937000         0.2347269500 
        0.6401217000         0.8137573300 
s   1 1.0  
        0.1612778000         1.0000000000 

[5D]
[9G]
[MO]
 Sym=     1a
 Ene= -2.71479600000000E-04
 Spin= Alpha
 Occup=-0.000500
  1      -0.008142156919
  2      -0.076559320066
  3      -0.009193480128
  4      -0.021126167343
  5       0.010638412314
  6       0.043071277525
  7       0.599920444362
  8      -0.124531448432
  9      -0.308946839460
 10       0.061162991359
 11       0.054542796176
 12       0.020644802281
 13      -0.060476030067
 14       0.017567604490
 15      -0.028279235635
 16       0.127043527837
 17       0.916188082081
 18      -0.364343238886
 19      -0.475223943142
 20      -0.012676517851
 21      -0.155146837097
 22       0.169055444035
 23      -0.031801285777
 24      -0.025537972565
 25       0.532351839547
 26      -0.557780504425
 27       0.090596375229
 28      -0.022507974425
 29      -0.011797570001
 30       0.169652110208
 31      -0.030963122254
 32      -0.000998986190
 33       0.017145393372
 34      -0.074323847162
 35       0.611174490127
 36      -0.003761926654
 37      -0.080490911578
 38      -0.312220810257
 39      -0.017000140957
 40      -0.187640221402
 41       0.212187647907
 42      -0.044242703412
 43      -0.074057950390
 44       0.561096806981
 45      -0.736430386283
 46       0.135357847236
 47       0.308390372869
 48       0.051211408676
 49      -0.088887677187
 50       0.027327428324
 51      -0.052086916518
 52       0.016682901988
 53      -0.116106806968
 54       0.074504319966
 55       0.388339280286
 56      -0.026407939774
 57      -0.026645775186
 58       0.020278477802
 59       0.203420240156
 60       0.129739596350
 61      -0.085640049041
 62      -0.109387206184
 63      -0.935772525865
 64      -0.429026595497
 65       0.309414592218
 66       0.335976725330
 67      -0.008021256453
 68      -0.018168468076
 69       0.017597340785
 70       0.034924723948
 71      -0.043129210400
 72       0.025122033781
 73      -1.410004959770
 74       1.359932996881
 75      -0.213522640299
 76      -0.917582842909
 77       0.045111995026
 78       0.167494565004
 79       0.044371850669
 80       0.172520039504
 81      -0.000237547594
 82      -0.000153717935
 83      -0.090545666911
 84       0.034640960361
 85       0.008125670354
 86      -0.032911889721
 87       0.174565707017
 88      -0.111674017766
 89      -0.179195791147
 90      -0.008821930503
 91       0.057234266201
 92       0.058878375322
 93       0.014870666212
 94       0.015113988952
 95       0.002618300080
 96      -5.837815301834
 97      -2.812955766904
 98       0.095813894317
 99       1.355100684138
100       0.024465649039
101       0.058591994009
102       0.001766435503
103      -0.064224202650
104       0.045691404109
105      -0.018270444543
106       0.006859198238
107      -0.124891449943
108      -0.694650098181
109      -0.452678567358
110      -0.150048180717
111      -0.023894433584
112      -0.024728716130
113       0.055144726062
114      -0.048134592876
115       0.035938736282
116       0.017493196343
117       3.160660244818
118      -0.885498060255
119       0.381895501817
120       0.003842640323
121       0.002371200690
122       0.064774894747
123      -0.151057877596
124      -0.026563046116
125      -0.019493158535
126      -0.344036725037
127       0.610295172386
128      -0.063640498256
129       0.023517024440
130       0.006159511917
131       0.012481142931
132       0.015297115065
133       0.012440458353
134       0.103888620088
135      -0.020219060476
136      -0.240884018634
137      -0.132480982700
138      -0.118456769007
139       0.013076658673
140      -0.016860330963
141      -0.208083688074
142      -0.072417193990
143      -0.003608973315
144      -0.019555476703
145       0.810574980675
146       0.076909854917
147      -0.122734283143
148       0.027338386965
149       0.015825339104
150      -0.023433521458
151      -0.002899253885
152      -0.010560710249
153      -0.016933126033
154      -0.078443606339
155       0.981161909458
156      -0.397738371100
157      -0.207072970193
158      -0.039294951170
159      -0.016294571114
160      -0.051913112766
161      -0.000780886044
162       0.022876562221
163      -0.004380376073
164      -0.041725260882
165      -0.017411113908
166       0.016104773949
167       0.009774894496
168       0.119572727384
169       0.099333385525
170      -0.001322661267
171       0.012014319021
172      -0.053339921411
173       0.031629479084
174       0.009266547466
175      -0.010342994569
176       2.147513735001
177       0.706997750162
178      -0.682318400417
179       0.028758296835
180      -0.002540436174
181      -0.002891961265
182      -0.045094470968
183       0.092883038016
184       0.046750425667
185      -0.097529433571
 Sym=     1a
 Ene= -1.53726200000000E-04
 Spin= Alpha
 Occup=-0.000300
  1       0.005937317260
  2       0.037115791785
  3      -0.023956170299
  4      -0.022099561091
  5       0.009050856758
  6       0.102680927536
  7      -0.287827475663
  8       0.074151080539
  9       0.400555104827
 10      -0.038707040242
 11      -0.047138769590
 12       0.039672544483
 13       0.052950758098
 14      -0.052821716773
 15       0.020369785410
 16      -1.791994728874
 17      -1.164291775603
 18      -0.214773054829
 19       0.234441941691
 20       0.023294651914
 21       0.195456366087
 22      -0.099551481591
 23       0.014839687597
 24       0.011788321904
 25      -0.754961127568
 26       0.307809276301
 27      -0.047218964480
 28       0.113567113189
 29       0.004330898340
 30      -0.086737968873
 31       0.008539584725
 32       0.004027704487
 33      -0.025166539726
 34       0.151191750811
 35      -0.394708773250
 36      -0.172113117285
 37       0.046285927314
 38       0.182105057420
 39       0.020014630044
 40       0.170718271707
 41      -0.115287619523
 42      -0.003596722879
 43       0.027298696390
 44      -0.435494345946
 45       0.399405849386
 46      -0.027012246192
 47      -0.121160328749
 48      -0.029613250191
 49       0.057173949799
 50       0.005334412441
 51       0.018949397312
 52      -0.006319040150
 53       0.154916666823
 54      -0.381753546378
 55      -0.376345540828
 56       0.113328746333
 57      -0.098819865652
 58       0.006783595131
 59       0.068702635518
 60      -0.024580006938
 61      -0.019354232779
 62       0.058855114032
 63      -0.038572893556
 64      -0.049962365062
 65       0.199137106087
 66      -0.217907494239
 67       0.023229468805
 68       0.025373237542
 69      -0.013029056580
 70      -0.025080836162
 71       0.033793396175
 72       0.028058902281
 73       1.643965328112
 74      -1.228493825244
 75       0.132377298620
 76       0.433024084913
 77      -0.037549009480
 78      -0.134079286687
 79      -0.008805303058
 80       0.112362738127
 81       0.005473888304
 82      -0.057285609945
 83      -0.092013975417
 84       0.087919748083
 85      -0.004129329456
 86      -0.419785798817
 87       0.132782044818
 88      -0.112331538318
 89       0.154764392697
 90      -0.039020986279
 91      -0.030122441649
 92       0.018984453863
 93       0.053701902328
 94      -0.030550230073
 95       0.032657031116
 96      -7.004738718877
 97      -3.415048091745
 98       2.300430069065
 99       0.522882601716
100       0.008988320842
101      -0.006674506015
102      -0.002668217158
103      -0.111549608246
104       0.037883632014
105      -0.032641470641
106      -0.013124409080
107       0.159791309840
108      -0.798285157889
109       0.111750552331
110      -0.045754319783
111       0.005906052524
112       0.048079036852
113      -0.003655561778
114      -0.065177081911
115       0.173320764313
116       0.024381871021
117       8.356000997945
118      -3.000903901839
119       0.883404817159
120       0.315702647155
121      -0.024866210464
122      -0.186092136922
123      -0.221141361234
124       0.024818814086
125       0.007775977692
126       0.607456624307
127       0.848171106967
128      -0.063998997017
129      -0.007949865548
130       0.023871842670
131       0.059672616798
132      -0.026664968175
133       0.033815914331
134       0.167813108604
135      -0.197171255160
136      -0.174331483038
137      -0.600790211489
138      -0.109638891851
139      -0.051422341884
140      -0.028065940642
141      -0.262681450461
142      -0.118991920924
143       0.013742452438
144      -0.029167976445
145       0.884167195797
146       0.311097362612
147      -0.146264411442
148       0.070001272905
149       0.023938376469
150      -0.024258591947
151       0.008426698405
152      -0.067215061061
153      -0.054018933446
154      -0.186481509890
155       0.455210800173
156      -0.241966201795
157      -0.288226600565
158      -0.126313521327
159      -0.086039986684
160       0.271328759432
161      -0.003978151903
162       0.017336249355
163      -0.003022048913
164      -0.066466054707
165       0.012811258958
166       0.095109135047
167      -0.089847452258
168       0.038426821021
169       0.035094259709
170      -0.004906196445
171       0.027536372710
172       0.022887098806
173       0.006429684474
174      -0.001344430669
175      -0.028828851924
176      -1.101288369745
177       0.454623273765
178      -0.161184225529
179      -0.290327110010
180       0.008067426801
181      -0.108106848522
182      -0.061961234923
183       0.288334246993
184      -0.033422873451
185       0.199403629555
 Sym=     1a
 Ene= -1.12985800000000E-04
 Spin= Alpha
 Occup=-0.000200
  1      -0.005478317783
  2      -0.032859265013
  3      -0.046058978134
  4       0.015617996157
  5      -0.117151225816
  6       0.085260035911
  7       0.524862927066
  8      -0.010852497533
  9       0.739250918837
 10      -0.047402945005
 11       0.197383043333
 12      -0.039045197031
 13       0.017884745407
 14      -0.000567861426
 15      -0.009730945581
 16      -0.644422541639
 17      -0.157185200152
 18      -0.065699083919
 19       0.471860797839
 20       0.042696367733
 21       0.293385612774
 22       0.178263112865
 23      -0.005637755280
 24       0.119752027941
 25      -1.115744254726
 26      -0.679344311872
 27       0.064116768007
 28      -0.344578863910
 29       0.089401233169
 30       0.065467061238
 31       0.038296153516
 32      -0.008671237895
 33       0.010673842304
 34       0.338021490611
 35      -0.551601886892
 36       0.666517104723
 37      -0.226334635455
 38       0.552758971961
 39      -0.023227818195
 40      -0.167314574136
 41      -0.078579248567
 42       0.062854275103
 43       0.178155054917
 44       0.706675661628
 45       0.352972485140
 46      -0.178440309970
 47      -0.474233223724
 48      -0.033649714225
 49      -0.098408537901
 50      -0.013628992326
 51      -0.029996442980
 52      -0.025307887530
 53      -0.183061327906
 54       1.947454341677
 55       0.076636474207
 56       0.062796524135
 57       1.087868446073
 58      -0.009993714887
 59      -0.048281072161
 60       0.015089820783
 61       0.007218948886
 62       0.028678182665
 63       0.385131338249
 64      -0.005058295115
 65       0.019036038108
 66      -0.180013173144
 67      -0.032833634023
 68       0.125972273929
 69       0.010296115205
 70       0.000216556179
 71       0.040588158356
 72      -0.046911339108
 73      -0.241454523309
 74       1.707892102725
 75      -0.173839974906
 76      -0.749643433951
 77      -0.017904292055
 78      -0.249786604327
 79      -0.001188556163
 80      -0.106263657186
 81       0.021911838668
 82       0.154100443154
 83      -0.026779420916
 84      -0.019941403338
 85       0.094361963131
 86      -0.453098547800
 87       0.102108563139
 88       0.422224127652
 89       0.009214628658
 90      -0.022871427449
 91      -0.001436502367
 92      -0.067807427015
 93      -0.039850158749
 94       0.003013098965
 95       0.043508390382
 96      -3.154119332315
 97      -2.501583648170
 98       0.795253868507
 99       1.755133814085
100       0.139421925191
101      -0.835566398657
102      -0.001445432247
103      -0.052488962393
104      -0.001366810972
105      -0.006761034979
106      -0.014767325012
107       0.355728016668
108      -0.152239009427
109       0.075952085283
110       0.056719880308
111      -0.020552743394
112      -0.051624601650
113       0.036302203169
114       0.019292090796
115       0.059663845772
116       0.040058685129
117       4.547316242195
118      -0.969548726019
119       0.708307539347
120      -0.257217700481
121       0.000628732841
122       0.013142694433
123      -0.029297210229
124       0.003890825692
125      -0.034320405547
126       0.034159174477
127       0.109582975862
128      -0.033969853716
129       0.067986387094
130       0.004344319852
131      -0.004438553274
132       0.026527900577
133       0.006371226038
134       0.038452891791
135       0.012557056043
136      -0.706045995504
137       0.293580659428
138      -0.198630198600
139      -0.003197296671
140       0.000189433483
141       0.025416589870
142       0.000132689023
143       0.011192148222
144      -0.014929081568
145      -0.080562926615
146       0.064697742063
147      -0.021403613875
148       0.048841485670
149       0.003955938343
150       0.001743132782
151      -0.015073304496
152      -0.019686231344
153      -0.023408069966
154      -0.013430907707
155      -0.073058428437
156      -0.045507474634
157       0.064776031798
158      -0.073650083786
159      -0.019496265683
160       0.140758275170
161       0.008445977014
162       0.050721406298
163       0.014664401272
164       0.040948782492
165       0.020314404743
166      -0.298191551424
167      -0.143868340896
168      -0.020138045072
169      -0.197752344351
170       0.015931443149
171       0.002018065646
172      -0.025254974982
173       0.019697643570
174       0.005205004330
175       0.020830489191
176      -0.155593165624
177       0.285889358817
178       0.056072648876
179      -0.435767414487
180      -0.009550185881
181      -0.022720253414
182       0.041688361916
183       0.091536121950
184      -0.010661709030
185      -0.096396220939
 Sym=     1a
 Ene= -8.27087000000000E-05
 Spin= Alpha
 Occup=-0.000200
  1       0.002022662669
  2       0.012891182034
  3      -0.003017275580
  4      -0.006645852065
  5      -0.012426141756
  6      -0.064269778304
  7       0.013885688864
  8      -0.038869072620
  9       0.035132119670
 10       0.001344161113
 11       0.003460591088
 12       0.013268207179
 13       0.000848300502
 14      -0.011689342044
 15       0.009655963338
 16      -0.412791867268
 17      -0.064716814632
 18      -0.068589103765
 19       0.041499560284
 20      -0.002721789357
 21      -0.016655148743
 22       0.004764635739
 23      -0.002257826362
 24       0.006006820157
 25       0.056314809736
 26      -0.028715010347
 27       0.012033492085
 28      -0.037547482027
 29      -0.001182345909
 30       0.007469944178
 31      -0.004755303428
 32       0.010482003141
 33      -0.006439029727
 34      -0.020952124314
 35      -0.104316909895
 36       0.073055773499
 37      -0.026338160426
 38       0.147989181432
 39      -0.011515752603
 40      -0.064825038416
 41      -0.004253285490
 42      -0.013685916016
 43       0.023772462632
 44       0.261376801889
 45       0.031819469778
 46       0.025023797839
 47      -0.060163058036
 48      -0.001524686088
 49      -0.011157670772
 50       0.011291359198
 51      -0.002679775034
 52       0.011434313536
 53      -0.086092315036
 54      -0.162761294763
 55      -0.113561931102
 56       0.074981388722
 57       0.128797025679
 58       0.006055692528
 59      -0.005940113377
 60      -0.013758611749
 61      -0.016532151652
 62      -0.014536809439
 63      -0.107403431171
 64       0.043123654234
 65       0.093666808174
 66       0.009711707111
 67      -0.001231883879
 68       0.002111758254
 69      -0.010431144207
 70      -0.000448562462
 71       0.024872880508
 72       0.042582090628
 73      -1.014077125735
 74      -0.552881328035
 75      -0.296451768263
 76       0.119354954254
 77       0.020865440358
 78       0.026716955145
 79       0.000624124991
 80       0.158347706090
 81       0.004078596885
 82       0.056919881396
 83       0.023609527437
 84       0.051521425700
 85      -0.006477080949
 86      -0.160501376479
 87      -0.226843372188
 88      -0.132711836418
 89       0.187262143581
 90      -0.002633988837
 91      -0.057252481165
 92       0.056112945974
 93      -0.003606859263
 94      -0.006877562204
 95      -0.012139450381
 96       4.331719599179
 97      -1.392882746479
 98       2.591346715080
 99      -2.085285800253
100       0.057186061889
101      -0.442045967715
102      -0.002344794484
103      -0.048915103926
104      -0.011018301651
105      -0.045644835099
106       0.114336182681
107       0.265340273657
108      -0.126390516967
109       0.137274538122
110       0.016588749507
111       0.034461470708
112       0.181825697442
113       0.160371735125
114      -0.010687333725
115      -0.041107227786
116       0.021914474806
117       2.774474788458
118      -0.934114940721
119      -0.108062788578
120       1.535489009942
121      -0.013278439809
122      -0.065457224327
123      -0.015535099296
124      -0.004454778589
125       0.050591196062
126       0.265897526784
127       0.063597923380
128      -0.051373653388
129      -0.006899150158
130      -0.010935565960
131      -0.081898568808
132      -0.102030853277
133       0.002722110311
134       0.041238525447
135      -0.107777459154
136      -0.106095772567
137       0.053735607960
138       0.206978133417
139      -0.653359088796
140      -0.001776251824
141      -0.007796600737
142      -0.007648342024
143      -0.045839359011
144       0.324043000472
145       0.052903479226
146       0.023074691297
147       0.140412282073
148      -1.048458384824
149       0.009612872060
150       0.038057021232
151       0.050241300275
152      -0.006641156697
153      -0.011280988024
154      -0.003561584613
155      -0.382387215277
156       0.261540241099
157      -0.143666315009
158       0.963934041197
159      -0.019603608681
160       0.030443850441
161      -0.012657483744
162      -0.052341214228
163      -0.029052256608
164      -0.034288398196
165       0.074983195105
166       0.160730790566
167       0.261611248293
168      -0.050850889446
169      -0.191261505364
170       0.022111696381
171      -0.025132862202
172       0.021678517273
173       0.001173164172
174      -0.006029657791
175      -0.050505745170
176      -5.925251893887
177       0.322866433387
178       1.070130996560
179      -0.317448547173
180       0.016266616805
181       0.175896121729
182      -0.032796225453
183       0.031941695247
184      -0.151116915167
185       0.299870392732
 Sym=     1a
 Ene= -5.44657000000000E-05
 Spin= Alpha
 Occup=-0.000100
  1       0.009608877663
  2       0.063681179030
  3       0.014758674328
  4      -0.012867501164
  5       0.013175608252
  6      -0.586214108138
  7      -0.037927407313
  8      -0.011768795314
  9       0.129579745805
 10       0.009732806900
 11      -0.019912295994
 12       0.031136387994
 13      -0.016886585599
 14       0.060480388741
 15       0.017204018038