[Molden Format]
[Atoms] (AU)
C    1    6        -3.827135153648      -0.371936473996       0.676652235507
O    2    8        -4.119020231355      -0.135977585371       2.928293356327
O    3    8        -5.148202019335      -0.275179640889      -1.325250163936
N    4    7        -1.179388888047      -0.853902299004      -0.581308091623
H    5    1        -2.380350206789      -0.563145377822      -2.261472479876
H    6    1        -0.640164190472      -2.711391147796      -0.418794810815
C    7    6         0.903322415963       0.819243289237       0.221372994755
H    8    1         0.694271379931       1.089388570322       2.273775776827
C    9    6         3.387279314807      -0.584005830394      -0.175615848293
O   10    8         3.542359416615      -2.812695392602      -0.694195412508
O   11    8         5.407253269473       0.917394022334       0.186017459155
H   12    1         6.913221019398      -0.111289417914      -0.016550183056
C   13    6         0.767584167134       3.385931494945      -1.107178274155
H   14    1        -1.060463223407       4.276417332234      -0.730672403584
H   15    1         2.257367399374       4.632612334380      -0.410128731495
H   16    1         0.985744096084       3.168942536176      -3.154187514760
[GTO]
  1 0
 s    6  1.00
     3047.5249000000         0.0018347000
      457.3695100000         0.0140373000
      103.9486900000         0.0688426000
       29.2101550000         0.2321844000
        9.2866630000         0.4679413000
        3.1639270000         0.3623120000
 s    3  1.00
        7.8682724000        -0.1193324000
        1.8812885000        -0.1608542000
        0.5442493000         1.1434564000
 p    3  1.00
        7.8682724000         0.0689991000
        1.8812885000         0.3164240000
        0.5442493000         0.7443083000
 s    1  1.00
        0.1687144000         1.0000000000
 p    1  1.00
        0.1687144000         1.0000000000
 d    1  1.00
        0.8000000000         1.0000000000
 s    1  1.00
        0.0438000000         1.0000000000
 p    1  1.00
        0.0438000000         1.0000000000

  2 0
 s    6  1.00
     5484.6717000000         0.0018311000
      825.2349500000         0.0139501000
      188.0469600000         0.0684451000
       52.9645000000         0.2327143000
       16.8975700000         0.4701930000
        5.7996353000         0.3585209000
 s    3  1.00
       15.5396160000        -0.1107775000
        3.5999336000        -0.1480263000
        1.0137618000         1.1307670000
 p    3  1.00
       15.5396160000         0.0708743000
        3.5999336000         0.3397528000
        1.0137618000         0.7271586000
 s    1  1.00
        0.2700058000         1.0000000000
 p    1  1.00
        0.2700058000         1.0000000000
 d    1  1.00
        0.8000000000         1.0000000000
 s    1  1.00
        0.0845000000         1.0000000000
 p    1  1.00
        0.0845000000         1.0000000000

  3 0
 s    6  1.00
     5484.6717000000         0.0018311000
      825.2349500000         0.0139501000
      188.0469600000         0.0684451000
       52.9645000000         0.2327143000
       16.8975700000         0.4701930000
        5.7996353000         0.3585209000
 s    3  1.00
       15.5396160000        -0.1107775000
        3.5999336000        -0.1480263000
        1.0137618000         1.1307670000
 p    3  1.00
       15.5396160000         0.0708743000
        3.5999336000         0.3397528000
        1.0137618000         0.7271586000
 s    1  1.00
        0.2700058000         1.0000000000
 p    1  1.00
        0.2700058000         1.0000000000
 d    1  1.00
        0.8000000000         1.0000000000
 s    1  1.00
        0.0845000000         1.0000000000
 p    1  1.00
        0.0845000000         1.0000000000

  4 0
 s    6  1.00
     4173.5110000000         0.0018348000
      627.4579000000         0.0139950000
      142.9021000000         0.0685870000
       40.2343300000         0.2322410000
       12.8202100000         0.4690700000
        4.3904370000         0.3604550000
 s    3  1.00
       11.6263580000        -0.1149610000
        2.7162800000        -0.1691180000
        0.7722180000         1.1458520000
 p    3  1.00
       11.6263580000         0.0675800000
        2.7162800000         0.3239070000
        0.7722180000         0.7408950000
 s    1  1.00
        0.2120313000         1.0000000000
 p    1  1.00
        0.2120313000         1.0000000000
 d    1  1.00
        0.8000000000         1.0000000000
 s    1  1.00
        0.0639000000         1.0000000000
 p    1  1.00
        0.0639000000         1.0000000000

  5 0
 s    3  1.00
       18.7311370000         0.0334946000
        2.8253937000         0.2347269500
        0.6401217000         0.8137573300
 s    1  1.00
        0.1612778000         1.0000000000

  6 0
 s    3  1.00
       18.7311370000         0.0334946000
        2.8253937000         0.2347269500
        0.6401217000         0.8137573300
 s    1  1.00
        0.1612778000         1.0000000000

  7 0
 s    6  1.00
     3047.5249000000         0.0018347000
      457.3695100000         0.0140373000
      103.9486900000         0.0688426000
       29.2101550000         0.2321844000
        9.2866630000         0.4679413000
        3.1639270000         0.3623120000
 s    3  1.00
        7.8682724000        -0.1193324000
        1.8812885000        -0.1608542000
        0.5442493000         1.1434564000
 p    3  1.00
        7.8682724000         0.0689991000
        1.8812885000         0.3164240000
        0.5442493000         0.7443083000
 s    1  1.00
        0.1687144000         1.0000000000
 p    1  1.00
        0.1687144000         1.0000000000
 d    1  1.00
        0.8000000000         1.0000000000
 s    1  1.00
        0.0438000000         1.0000000000
 p    1  1.00
        0.0438000000         1.0000000000

  8 0
 s    3  1.00
       18.7311370000         0.0334946000
        2.8253937000         0.2347269500
        0.6401217000         0.8137573300
 s    1  1.00
        0.1612778000         1.0000000000

  9 0
 s    6  1.00
     3047.5249000000         0.0018347000
      457.3695100000         0.0140373000
      103.9486900000         0.0688426000
       29.2101550000         0.2321844000
        9.2866630000         0.4679413000
        3.1639270000         0.3623120000
 s    3  1.00
        7.8682724000        -0.1193324000
        1.8812885000        -0.1608542000
        0.5442493000         1.1434564000
 p    3  1.00
        7.8682724000         0.0689991000
        1.8812885000         0.3164240000
        0.5442493000         0.7443083000
 s    1  1.00
        0.1687144000         1.0000000000
 p    1  1.00
        0.1687144000         1.0000000000
 d    1  1.00
        0.8000000000         1.0000000000
 s    1  1.00
        0.0438000000         1.0000000000
 p    1  1.00
        0.0438000000         1.0000000000

  10 0
 s    6  1.00
     5484.6717000000         0.0018311000
      825.2349500000         0.0139501000
      188.0469600000         0.0684451000
       52.9645000000         0.2327143000
       16.8975700000         0.4701930000
        5.7996353000         0.3585209000
 s    3  1.00
       15.5396160000        -0.1107775000
        3.5999336000        -0.1480263000
        1.0137618000         1.1307670000
 p    3  1.00
       15.5396160000         0.0708743000
        3.5999336000         0.3397528000
        1.0137618000         0.7271586000
 s    1  1.00
        0.2700058000         1.0000000000
 p    1  1.00
        0.2700058000         1.0000000000
 d    1  1.00
        0.8000000000         1.0000000000
 s    1  1.00
        0.0845000000         1.0000000000
 p    1  1.00
        0.0845000000         1.0000000000

  11 0
 s    6  1.00
     5484.6717000000         0.0018311000
      825.2349500000         0.0139501000
      188.0469600000         0.0684451000
       52.9645000000         0.2327143000
       16.8975700000         0.4701930000
        5.7996353000         0.3585209000
 s    3  1.00
       15.5396160000        -0.1107775000
        3.5999336000        -0.1480263000
        1.0137618000         1.1307670000
 p    3  1.00
       15.5396160000         0.0708743000
        3.5999336000         0.3397528000
        1.0137618000         0.7271586000
 s    1  1.00
        0.2700058000         1.0000000000
 p    1  1.00
        0.2700058000         1.0000000000
 d    1  1.00
        0.8000000000         1.0000000000
 s    1  1.00
        0.0845000000         1.0000000000
 p    1  1.00
        0.0845000000         1.0000000000

  12 0
 s    3  1.00
       18.7311370000         0.0334946000
        2.8253937000         0.2347269500
        0.6401217000         0.8137573300
 s    1  1.00
        0.1612778000         1.0000000000

  13 0
 s    6  1.00
     3047.5249000000         0.0018347000
      457.3695100000         0.0140373000
      103.9486900000         0.0688426000
       29.2101550000         0.2321844000
        9.2866630000         0.4679413000
        3.1639270000         0.3623120000
 s    3  1.00
        7.8682724000        -0.1193324000
        1.8812885000        -0.1608542000
        0.5442493000         1.1434564000
 p    3  1.00
        7.8682724000         0.0689991000
        1.8812885000         0.3164240000
        0.5442493000         0.7443083000
 s    1  1.00
        0.1687144000         1.0000000000
 p    1  1.00
        0.1687144000         1.0000000000
 d    1  1.00
        0.8000000000         1.0000000000
 s    1  1.00
        0.0438000000         1.0000000000
 p    1  1.00
        0.0438000000         1.0000000000

  14 0
 s    3  1.00
       18.7311370000         0.0334946000
        2.8253937000         0.2347269500
        0.6401217000         0.8137573300
 s    1  1.00
        0.1612778000         1.0000000000

  15 0
 s    3  1.00
       18.7311370000         0.0334946000
        2.8253937000         0.2347269500
        0.6401217000         0.8137573300
 s    1  1.00
        0.1612778000         1.0000000000

  16 0
 s    3  1.00
       18.7311370000         0.0334946000
        2.8253937000         0.2347269500
        0.6401217000         0.8137573300
 s    1  1.00
        0.1612778000         1.0000000000

[MO]
 Sym= A
 Ene=        -0.0002714796
 Spin= Alpha
 Occup= -0.0005
  1      -0.008142156919
  2      -0.076559320066
  3      -0.009193480128
  4      -0.021126167343
  5       0.010638412314
  6       0.043071277525
  7       0.599920444362
  8      -0.124531448432
  9      -0.308946839460
 10      -0.095602132684
 11       0.009145424032
 12       0.048516132713
 13       0.017567604490
 14       0.054542796176
 15       0.020644802281
 16       0.127043527837
 17       0.916188082081
 18      -0.364343238886
 19      -0.475223943142
 20      -0.012676517851
 21      -0.155146837097
 22       0.169055444035
 23      -0.031801285777
 24      -0.025537972565
 25       0.532351839547
 26      -0.557780504425
 27       0.090596375229
 28      -0.022507974425
 29      -0.028204997339
 30      -0.026474702501
 31      -0.045036204922
 32       0.017145393372
 33       0.169652110208
 34      -0.030963122254
 35       0.611174490127
 36      -0.003761926654
 37      -0.080490911578
 38      -0.312220810257
 39      -0.017000140957
 40      -0.187640221402
 41       0.212187647907
 42      -0.044242703412
 43      -0.074057950390
 44       0.561096806981
 45      -0.736430386283
 46       0.135357847236
 47       0.308390372869
 48      -0.122638839853
 49      -0.032421654035
 50      -0.000713133930
 51       0.016682901988
 52      -0.088887677187
 53       0.027327428324
 54       0.074504319966
 55       0.388339280286
 56      -0.026407939774
 57      -0.026645775186
 58       0.020278477802
 59       0.203420240156
 60       0.129739596350
 61      -0.085640049041
 62      -0.109387206184
 63      -0.935772525865
 64      -0.429026595497
 65       0.309414592218
 66       0.335976725330
 67       0.045491241439
 68      -0.015000154879
 69       0.003213658601
 70      -0.043129210400
 71      -0.018168468076
 72       0.017597340785
 73      -1.410004959770
 74       1.359932996881
 75      -0.213522640299
 76      -0.917582842909
 77       0.045111995026
 78       0.167494565004
 79       0.044371850669
 80       0.172520039504
 81      -0.000237547594
 82      -0.000153717935
 83      -0.090545666911
 84       0.034640960361
 85       0.008125670354
 86      -0.032911889721
 87       0.174565707017
 88      -0.111674017766
 89      -0.179195791147
 90       0.018460279355
 91      -0.007296470066
 92      -0.007650991110
 93       0.015113988952
 94       0.057234266201
 95       0.058878375322
 96      -5.837815301834
 97      -2.812955766904
 98       0.095813894317
 99       1.355100684138
100       0.024465649039
101       0.058591994009
102       0.001766435503
103      -0.064224202650
104       0.045691404109
105      -0.018270444543
106       0.006859198238
107      -0.124891449943
108      -0.694650098181
109      -0.452678567358
110      -0.150048180717
111      -0.021915368206
112       0.061456192257
113      -0.016071238351
114       0.035938736282
115      -0.024728716130
116       0.055144726062
117       3.160660244818
118      -0.885498060255
119       0.381895501817
120       0.003842640323
121       0.002371200690
122       0.064774894747
123      -0.151057877596
124      -0.026563046116
125      -0.019493158535
126      -0.344036725037
127       0.610295172386
128      -0.063640498256
129       0.023517024440
130      -0.001348241723
131      -0.022895747660
132      -0.002882726816
133       0.103888620088
134       0.012481142931
135       0.015297115065
136      -0.240884018634
137      -0.132480982700
138      -0.118456769007
139       0.013076658673
140      -0.016860330963
141      -0.208083688074
142      -0.072417193990
143      -0.003608973315
144      -0.019555476703
145       0.810574980675
146       0.076909854917
147      -0.122734283143
148       0.027338386965
149      -0.052139560145
150      -0.033847873429
151      -0.019255708131
152      -0.016933126033
153      -0.023433521458
154      -0.002899253885
155       0.981161909458
156      -0.397738371100
157      -0.207072970193
158      -0.039294951170
159      -0.016294571114
160      -0.051913112766
161      -0.000780886044
162       0.022876562221
163      -0.004380376073
164      -0.041725260882
165      -0.017411113908
166       0.016104773949
167       0.009774894496
168       0.119572727384
169       0.099333385525
170       0.023427735239
171      -0.031356129551
172      -0.005948189056
173       0.009266547466
174       0.012014319021
175      -0.053339921411
176       2.147513735001
177       0.706997750162
178      -0.682318400417
179       0.028758296835
180      -0.002540436174
181      -0.002891961265
182      -0.045094470968
183       0.092883038016
184       0.046750425667
185      -0.097529433571
 Sym= A
 Ene=        -0.0001537262
 Spin= Alpha
 Occup= -0.0003
  1       0.005937317260
  2       0.037115791785
  3      -0.023956170299
  4      -0.022099561091
  5       0.009050856758
  6       0.102680927536
  7      -0.287827475663
  8       0.074151080539
  9       0.400555104827
 10       0.074319866756
 11      -0.017393536569
 12      -0.029597395269
 13      -0.052821716773
 14      -0.047138769590
 15       0.039672544483
 16      -1.791994728874
 17      -1.164291775603
 18      -0.214773054829
 19       0.234441941691
 20       0.023294651914
 21       0.195456366087
 22      -0.099551481591
 23       0.014839687597
 24       0.011788321904
 25      -0.754961127568
 26       0.307809276301
 27      -0.047218964480
 28       0.113567113189
 29       0.068937651725
 30       0.061961462916
 31       0.071945904830
 32      -0.025166539726
 33      -0.086737968873
 34       0.008539584725
 35      -0.394708773250
 36      -0.172113117285
 37       0.046285927314
 38       0.182105057420
 39       0.020014630044
 40       0.170718271707
 41      -0.115287619523
 42      -0.003596722879
 43       0.027298696390
 44      -0.435494345946
 45       0.399405849386
 46      -0.027012246192
 47      -0.121160328749
 48       0.100498124127
 49       0.067676805210
 50       0.039667589382
 51      -0.006319040150
 52       0.057173949799
 53       0.005334412441
 54      -0.381753546378
 55      -0.376345540828
 56       0.113328746333
 57      -0.098819865652
 58       0.006783595131
 59       0.068702635518
 60      -0.024580006938
 61      -0.019354232779
 62       0.058855114032
 63      -0.038572893556
 64      -0.049962365062
 65       0.199137106087
 66      -0.217907494239
 67      -0.020787053092
 68       0.022654229437
 69       0.035777791380
 70       0.033793396175
 71       0.025373237542
 72      -0.013029056580
 73       1.643965328112
 74      -1.228493825244
 75       0.132377298620
 76       0.433024084913
 77      -0.037549009480
 78      -0.134079286687
 79      -0.008805303058
 80       0.112362738127
 81       0.005473888304
 82      -0.057285609945
 83      -0.092013975417
 84       0.087919748083
 85      -0.004129329456
 86      -0.419785798817
 87       0.132782044818
 88      -0.112331538318
 89       0.154764392697
 90       0.080622373091
 91      -0.012392050205
 92      -0.024416317975
 93      -0.030550230073
 94      -0.030122441649
 95       0.018984453863
 96      -7.004738718877
 97      -3.415048091745
 98       2.300430069065
 99       0.522882601716
100       0.008988320842
101      -0.006674506015
102      -0.002668217158
103      -0.111549608246
104       0.037883632014
105      -0.032641470641
106      -0.013124409080
107       0.159791309840
108      -0.798285157889
109       0.111750552331
110      -0.045754319783
111      -0.048494130737
112       0.064395886622
113       0.016809956728
114       0.173320764313
115       0.048079036852
116      -0.003655561778
117       8.356000997945
118      -3.000903901839
119       0.883404817159
120       0.315702647155
121      -0.024866210464
122      -0.186092136922
123      -0.221141361234
124       0.024818814086
125       0.007775977692
126       0.607456624307
127       0.848171106967
128      -0.063998997017
129      -0.007949865548
130      -0.070828146422
131      -0.129399028147
132      -0.064305823279
133       0.167813108604
134       0.059672616798
135      -0.026664968175
136      -0.174331483038
137      -0.600790211489
138      -0.109638891851
139      -0.051422341884
140      -0.028065940642
141      -0.262681450461
142      -0.118991920924
143       0.013742452438
144      -0.029167976445
145       0.884167195797
146       0.311097362612
147      -0.146264411442
148       0.070001272905
149      -0.153576205162
150      -0.037156304371
151      -0.059458690063
152      -0.054018933446
153      -0.024258591947
154       0.008426698405
155       0.455210800173
156      -0.241966201795
157      -0.288226600565
158      -0.126313521327
159      -0.086039986684
160       0.271328759432
161      -0.003978151903
162       0.017336249355
163      -0.003022048913
164      -0.066466054707
165       0.012811258958
166       0.095109135047
167      -0.089847452258
168       0.038426821021
169       0.035094259709
170      -0.004871286208
171      -0.016007826393
172      -0.017798850968
173      -0.001344430669
174       0.027536372710
175       0.022887098806
176      -1.101288369745
177       0.454623273765
178      -0.161184225529
179      -0.290327110010
180       0.008067426801
181      -0.108106848522
182      -0.061961234923
183       0.288334246993
184      -0.033422873451
185       0.199403629555
 Sym= A
 Ene=        -0.0001129858
 Spin= Alpha
 Occup= -0.0002
  1      -0.005478317783
  2      -0.032859265013
  3      -0.046058978134
  4       0.015617996157
  5      -0.117151225816
  6       0.085260035911
  7       0.524862927066
  8      -0.010852497533
  9       0.739250918837
 10       0.034838305204
 11       0.003861017479
 12      -0.051754756166
 13      -0.000567861426
 14       0.197383043333
 15      -0.039045197031
 16      -0.644422541639
 17      -0.157185200152
 18      -0.065699083919
 19       0.471860797839
 20       0.042696367733
 21       0.293385612774
 22       0.178263112865
 23      -0.005637755280
 24       0.119752027941
 25      -1.115744254726
 26      -0.679344311872
 27       0.064116768007
 28      -0.344578863910
 29       0.098957677289
 30       0.113976701887
 31       0.240569039341
 32       0.010673842304
 33       0.065467061238
 34       0.038296153516
 35      -0.551601886892
 36       0.666517104723
 37      -0.226334635455
 38       0.552758971961
 39      -0.023227818195
 40      -0.167314574136
 41      -0.078579248567
 42       0.062854275103
 43       0.178155054917
 44       0.706675661628
 45       0.352972485140
 46      -0.178440309970
 47      -0.474233223724
 48      -0.091020339181
 49      -0.039064975893
 50      -0.115517228875
 51      -0.025307887530
 52      -0.098408537901
 53      -0.013628992326
 54       1.947454341677
 55       0.076636474207
 56       0.062796524135
 57       1.087868446073
 58      -0.009993714887
 59      -0.048281072161
 60       0.015089820783
 61       0.007218948886
 62       0.028678182665
 63       0.385131338249
 64      -0.005058295115
 65       0.019036038108
 66      -0.180013173144
 67      -0.004375028469
 68      -0.004750114773
 69      -0.053813022655
 70       0.040588158356
 71       0.125972273929
 72       0.010296115205
 73      -0.241454523309
 74       1.707892102725
 75      -0.173839974906
 76      -0.749643433951
 77      -0.017904292055
 78      -0.249786604327
 79      -0.001188556163
 80      -0.106263657186
 81       0.021911838668
 82       0.154100443154
 83      -0.026779420916
 84      -0.019941403338
 85       0.094361963131
 86      -0.453098547800
 87       0.102108563139
 88       0.422224127652
 89       0.009214628658
 90      -0.003617992400
 91       0.065404507243
 92      -0.003413883752
 93       0.003013098965
 94      -0.001436502367
 95      -0.067807427015
 96      -3.154119332315
 97      -2.501583648170
 98       0.795253868507
 99       1.755133814085
100       0.139421925191
101      -0.835566398657
102      -0.001445432247
103      -0.052488962393
104      -0.001366810972
105      -0.006761034979
106      -0.014767325012
107       0.355728016668
108      -0.152239009427
109       0.075952085283
110       0.056719880308
111       0.044898601026
112       0.011483719583
113      -0.002637954787
114       0.059663845772
115      -0.051624601650
116       0.036302203169
117       4.547316242195
118      -0.969548726019
119       0.708307539347
120      -0.257217700481
121       0.000628732841
122       0.013142694433
123      -0.029297210229
124       0.003890825692
125      -0.034320405547
126       0.034159174477
127       0.109582975862
128      -0.033969853716
129       0.067986387094
130       0.008961169858
131      -0.002074117346
132       0.009960006034
133       0.038452891791
134      -0.004438553274
135       0.026527900577
136      -0.706045995504
137       0.293580659428
138      -0.198630198600
139      -0.003197296671
140       0.000189433483
141       0.025416589870
142       0.000132689023
143       0.011192148222
144      -0.014929081568
145      -0.080562926615
146       0.064697742063
147      -0.021403613875
148       0.048841485670
149      -0.025033230147
150       0.009064322751
151      -0.002050546183
152      -0.023408069966
153       0.001743132782
154      -0.015073304496
155      -0.073058428437
156      -0.045507474634
157       0.064776031798
158      -0.073650083786
159      -0.019496265683
160       0.140758275170
161       0.008445977014
162       0.050721406298
163       0.014664401272
164       0.040948782492
165       0.020314404743
166      -0.298191551424
167      -0.143868340896
168      -0.020138045072
169      -0.197752344351
170       0.018408616119
171      -0.015708703333
172       0.025247121116
173       0.005205004330
174       0.002018065646
175      -0.025254974982
176      -0.155593165624
177       0.285889358817
178       0.056072648876
179      -0.435767414487
180      -0.009550185881
181      -0.022720253414
182       0.041688361916
183       0.091536121950
184      -0.010661709030
185      -0.096396220939
 Sym= A
 Ene=        -0.0000827087
 Spin= Alpha
 Occup= -0.0002
  1       0.002022662669
  2       0.012891182034
  3      -0.003017275580
  4      -0.006645852065
  5      -0.012426141756
  6      -0.064269778304
  7       0.013885688864
  8      -0.038869072620
  9       0.035132119670
 10       0.004380847311
 11       0.002911547741
 12       0.005662439195
 13      -0.011689342044
 14       0.003460591088
 15       0.013268207179
 16      -0.412791867268
 17      -0.064716814632
 18      -0.068589103765
 19       0.041499560284
 20      -0.002721789357
 21      -0.016655148743
 22       0.004764635739
 23      -0.002257826362
 24       0.006006820157
 25       0.056314809736
 26      -0.028715010347
 27       0.012033492085
 28      -0.037547482027
 29       0.000298779109
 30      -0.017856582896
 31      -0.010552420757
 32      -0.006439029727
 33       0.007469944178
 34      -0.004755303428
 35      -0.104316909895
 36       0.073055773499
 37      -0.026338160426
 38       0.147989181432
 39      -0.011515752603
 40      -0.064825038416
 41      -0.004253285490
 42      -0.013685916016
 43       0.023772462632
 44       0.261376801889
 45       0.031819469778
 46       0.025023797839
 47      -0.060163058036
 48      -0.040060063964
 49      -0.035418557453
 50      -0.040026339840
 51       0.011434313536
 52      -0.011157670772
 53       0.011291359198
 54      -0.162761294763
 55      -0.113561931102
 56       0.074981388722
 57       0.128797025679
 58       0.006055692528
 59      -0.005940113377
 60      -0.013758611749
 61      -0.016532151652
 62      -0.014536809439
 63      -0.107403431171
 64       0.043123654234
 65       0.093666808174
 66       0.009711707111
 67       0.019270765306
 68       0.020047698280
 69       0.017811405975
 70       0.024872880508
 71       0.002111758254
 72      -0.010431144207
 73      -1.014077125735
 74      -0.552881328035
 75      -0.296451768263
 76       0.119354954254
 77       0.020865440358
 78       0.026716955145
 79       0.000624124991
 80       0.158347706090
 81       0.004078596885
 82       0.056919881396
 83       0.023609527437
 84       0.051521425700
 85      -0.006477080949
 86      -0.160501376479
 87      -0.226843372188
 88      -0.132711836418
 89       0.187262143581
 90      -0.007235564584
 91      -0.000988301084
 92      -0.008062916089
 93      -0.006877562204
 94      -0.057252481165
 95       0.056112945974
 96       4.331719599179
 97      -1.392882746479
 98       2.591346715080
 99      -2.085285800253
100       0.057186061889
101      -0.442045967715
102      -0.002344794484
103      -0.048915103926
104      -0.011018301651
105      -0.045644835099
106       0.114336182681
107       0.265340273657
108      -0.126390516967
109       0.137274538122
110       0.016588749507
111      -0.016685786787
112       0.001825218222
113       0.044261921779
114      -0.041107227786
115       0.181825697442
116       0.160371735125
117       2.774474788458
118      -0.934114940721
119      -0.108062788578
120       1.535489009942
121      -0.013278439809
122      -0.065457224327
123      -0.015535099296
124      -0.004454778589
125       0.050591196062
126       0.265897526784
127       0.063597923380
128      -0.051373653388
129      -0.006899150158
130      -0.040374345361
131      -0.045089178724
132      -0.059135110982
133       0.041238525447
134      -0.081898568808
135      -0.102030853277
136      -0.106095772567
137       0.053735607960
138       0.206978133417
139      -0.653359088796
140      -0.001776251824
141      -0.007796600737
142      -0.007648342024
143      -0.045839359011
144       0.324043000472
145       0.052903479226
146       0.023074691297
147       0.140412282073
148      -1.048458384824
149      -0.012150635501
150      -0.000647814680
151       0.008020083000
152      -0.011280988024
153       0.038057021232
154       0.050241300275
155      -0.382387215277
156       0.261540241099
157      -0.143666315009
158       0.963934041197
159      -0.019603608681
160       0.030443850441
161      -0.012657483744
162      -0.052341214228
163      -0.029052256608
164      -0.034288398196
165       0.074983195105
166       0.160730790566
167       0.261611248293
168      -0.050850889446
169      -0.191261505364
170      -0.032626714105
171      -0.034658694057
172      -0.000475159510
173      -0.006029657791
174      -0.025132862202
175       0.021678517273
176      -5.925251893887
177       0.322866433387
178       1.070130996560
179      -0.317448547173
180       0.016266616805
181       0.175896121729
182      -0.032796225453
183       0.031941695247
184      -0.151116915167
185       0.299870392732
 Sym= A
 Ene=        -0.0000544657
 Spin= Alpha
 Occup= -0.0001
  1       0.009608877663
  2       0.063681179030
  3       0.014758674328
  4      -0.012867501164
  5       0.013175608252
  6      -0.586214108138
  7      -0.037927407313
  8      -0.011768795314
  9       0.129579745805
 10      -0.011796744798
 11       0.017451679426
 12       0.017426677664
 13       0.060480388741
 14      -0.019912295994
 15       0.031136387994
 16      -0.827754241692
 17      -0.151250171151
 18      -0.363468395052
 19      -0.145563697452
 20      -0.003838572496
 21      -0.014400878118
 22       0.012142883359
 23      -0.005285678607
 24      -0.008024041141
 25      -0.016796024783
 26      -0.047330556456
 27      -0.002323895917
 28       0.011910552817
 29      -0.016773802314
 30      -0.021165072207
 31      -0.026307643165
 32      -0.013036751791
 33      -0.008336923285
 34      -0.023640623421
 35       0.760523944271
 36       0.161203728279
 37       0.084156354367
 38      -0.241555376253
 39      -0.022263814603