
                                 *****************
                                 * O   R   C   A *
                                 *****************

           --- An Ab Initio, DFT and Semiempirical electronic structure package ---

                  #######################################################
                  #                        -***-                        #
                  #          Department of theory and spectroscopy      #
                  #               Directorship: Frank Neese             #
                  #        Max Planck Institute fuer Kohlenforschung    #
                  #                Kaiser Wilhelm Platz 1               #
                  #                 D-45470 Muelheim/Ruhr               #
                  #                      Germany                        #
                  #                                                     #
                  #                  All rights reserved                #
                  #                        -***-                        #
                  #######################################################


                         Program Version 4.1.1  - RELEASE  -


 With contributions from (in alphabetic order):
   Daniel Aravena         : Magnetic Properties
   Michael Atanasov       : Ab Initio Ligand Field Theory
   Alexander A. Auer      : GIAO ZORA
   Ute Becker             : Parallelization
   Giovanni Bistoni       : ED, Open-shell LED
   Martin Brehm           : Molecular dynamics
   Dmytro Bykov           : SCF Hessian
   Vijay G. Chilkuri      : MRCI spin determinant printing
   Dipayan Datta          : RHF DLPNO-CCSD density
   Achintya Kumar Dutta   : EOM-CC, STEOM-CC
   Dmitry Ganyushin       : Spin-Orbit,Spin-Spin,Magnetic field MRCI
   Miquel Garcia          : C-PCM Hessian
   Yang Guo               : DLPNO-NEVPT2, CIM, IAO-localization
   Andreas Hansen         : Spin unrestricted coupled pair/coupled cluster methods
   Benjamin Helmich-Paris : CASSCF linear response (MC-RPA)
   Lee Huntington         : MR-EOM, pCC
   Robert Izsak           : Overlap fitted RIJCOSX, COSX-SCS-MP3, EOM
   Christian Kollmar      : KDIIS, OOCD, Brueckner-CCSD(T), CCSD density
   Simone Kossmann        : Meta GGA functionals, TD-DFT gradient, OOMP2, MP2 Hessian
   Martin Krupicka        : AUTO-CI
   Lucas Lang             : DCDCAS
   Dagmar Lenk            : GEPOL surface, SMD
   Dimitrios Liakos       : Extrapolation schemes; parallel MDCI
   Dimitrios Manganas     : ROCIS; embedding schemes
   Dimitrios Pantazis     : SARC Basis sets
   Taras Petrenko         : DFT Hessian,TD-DFT gradient, ASA, ECA, R-Raman, ABS, FL, XAS/XES, NRVS
   Peter Pinski           : DLPNO-MP2, DLPNO-MP2 Gradient
   Christoph Reimann      : Effective Core Potentials
   Marius Retegan         : Local ZFS, SOC
   Christoph Riplinger    : Optimizer, TS searches, QM/MM, DLPNO-CCSD(T), (RO)-DLPNO pert. Triples
   Tobias Risthaus        : Range-separated hybrids, TD-DFT gradient, RPA, STAB
   Michael Roemelt        : Restricted open shell CIS
   Masaaki Saitow         : Open-shell DLPNO
   Barbara Sandhoefer     : DKH picture change effects
   Avijit Sen             : IP-ROCIS
   Kantharuban Sivalingam : CASSCF convergence, NEVPT2, FIC-MRCI
   Bernardo de Souza      : ESD, SOC TD-DFT
   Georgi Stoychev        : AutoAux, RI-MP2 NMR
   Willem Van den Heuvel  : Paramagnetic NMR
   Boris Wezisla          : Elementary symmetry handling
   Frank Wennmohs         : Technical directorship


 We gratefully acknowledge several colleagues who have allowed us to
 interface, adapt or use parts of their codes:
   Stefan Grimme, W. Hujo, H. Kruse,             : VdW corrections, initial TS optimization,
                  C. Bannwarth                     DFT functionals, gCP, sTDA/sTD-DF
   Ed Valeev                                     : LibInt (2-el integral package), F12 methods
   Garnet Chan, S. Sharma, J. Yang, R. Olivares  : DMRG
   Ulf Ekstrom                                   : XCFun DFT Library
   Mihaly Kallay                                 : mrcc  (arbitrary order and MRCC methods)
   Andreas Klamt, Michael Diedenhofen            : otool_cosmo (COSMO solvation model)
   Jiri Pittner, Ondrej Demel                    : Mk-CCSD
   Frank Weinhold                                : gennbo (NPA and NBO analysis)
   Christopher J. Cramer and Donald G. Truhlar   : smd solvation model
   Lars Goerigk                                  : TD-DFT with DH, B97 family of functionals
   V. Asgeirsson, H. Jonsson                     : NEB implementation
   FAccTs GmbH                                   : IRC, NEB, NEB-TS, Multilevel


 Your calculation uses the libint2 library for the computation of 2-el integrals
 For citations please refer to: http://libint.valeyev.net

 This ORCA versions uses:
   CBLAS   interface :  Fast vector & matrix operations
   LAPACKE interface :  Fast linear algebra routines
   SCALAPACK package :  Parallel linear algebra routines


----- Orbital basis set information -----
Your calculation utilizes the basis: SV(P) 

================================================================================
                                        WARNINGS
                       Please study these warnings very carefully!
================================================================================


WARNING: Geometry Optimization
  ===> : Switching off AutoStart
         For restart on a previous wavefunction, please use MOREAD

INFO   : the flag for use of LIBINT has been found!

================================================================================
                                       INPUT FILE
================================================================================
NAME = input.dat
|  1> !UKS B3LYP SV(P) TightSCF KDIIS SOSCF OPT
|  2> 
|  3> *xyz 0 1
|  4>   C      -0.067565      0.297307     -0.061055
|  5>   O      -1.215925      0.116462     -0.103963
|  6>   O       1.083644      0.454964     -0.013826
|  7>   H       0.328279     -1.972712      0.397688
|  8>   H      -0.424748     -1.889982      0.331084
|  9> *
| 10> 
| 11>                          ****END OF INPUT****
================================================================================

                       *****************************
                       * Geometry Optimization Run *
                       *****************************

Geometry optimization settings:
Update method            Update   .... BFGS
Choice of coordinates    CoordSys .... Z-matrix Internals
Initial Hessian          InHess   .... Almoef's Model

Convergence Tolerances:
Energy Change            TolE     ....  5.0000e-06 Eh
Max. Gradient            TolMAXG  ....  3.0000e-04 Eh/bohr
RMS Gradient             TolRMSG  ....  1.0000e-04 Eh/bohr
Max. Displacement        TolMAXD  ....  4.0000e-03 bohr
RMS Displacement         TolRMSD  ....  2.0000e-03 bohr

------------------------------------------------------------------------------
                        ORCA OPTIMIZATION COORDINATE SETUP
------------------------------------------------------------------------------

The optimization will be done in new redundant internal coordinates
Making redundant internal coordinates   ...  (new redundants) done
Evaluating the initial hessian          ...  (Almloef) done
Evaluating the coordinates              ...  done
Calculating the B-matrix                .... done
Calculating the G-matrix                .... done
Diagonalizing the G-matrix              .... done
The first mode is                       ....   53
The number of degrees of freedom        ....    9

    -----------------------------------------------------------------
                    Redundant Internal Coordinates


    -----------------------------------------------------------------
         Definition                    Initial Value    Approx d2E/dq
    -----------------------------------------------------------------
      1. B(O   1,C   0)                  1.1633         1.286928   
      2. B(O   2,C   0)                  1.1629         1.288775   
      3. B(H   3,O   1)                  2.6459         0.001062   
      4. B(H   3,O   2)                  2.5756         0.001375   
      5. B(H   3,C   0)                  2.3495         0.003524   
      6. B(H   4,O   1)                  2.2002         0.005461   
      7. B(H   4,H   3)                  0.7605         0.231316   
      8. B(H   4,C   0)                  2.2507         0.005066   
      9. B(H   4,O   2)                  2.8094         0.000582   
     10. A(H   3,C   0,H   4)           18.8727         0.115981   
     11. A(O   1,C   0,H   3)           91.3362         0.197353   
     12. A(O   1,C   0,H   4)           72.4635         0.206630   
     13. A(O   2,C   0,H   3)           87.4937         0.197388   
     14. A(O   2,C   0,H   4)          106.3664         0.206669   
     15. A(H   3,O   1,H   4)           14.6726         0.109436   
     16. A(C   0,O   1,H   4)           77.2619         0.207253   
     17. A(C   0,O   1,H   3)           62.5892         0.170635   
     18. A(C   0,O   2,H   3)           65.6929         0.175581   
     19. A(C   0,O   2,H   4)           50.2330         0.160280   
     20. A(H   3,O   2,H   4)           15.4599         0.102056   
     21. A(C   0,H   3,H   4)           73.1997         0.140235   
     22. A(C   0,H   3,O   1)           26.0746         0.107725   
     23. A(O   1,H   3,H   4)           47.1251         0.127601   
     24. A(C   0,H   3,O   2)           26.8134         0.108853   
     25. A(O   2,H   3,H   4)          100.0131         0.129927   
     26. A(O   1,H   3,O   2)           52.8880         0.103957   
     27. A(C   0,H   4,O   1)           30.2746         0.118447   
     28. A(O   1,H   4,H   3)          118.2022         0.144916   
     29. A(C   0,H   4,H   3)           87.9276         0.144622   
     30. A(O   1,H   4,O   2)           53.6752         0.106838   
     31. A(C   0,H   4,O   2)           23.4006         0.106744   
     32. A(O   2,H   4,H   3)           64.5270         0.122694   
     33. D(H   4,O   1,C   0,H   3)     -0.0039         0.178870   
     34. D(H   3,O   1,C   0,H   4)      0.0039         0.178870   
     35. D(H   3,O   2,C   0,H   4)     -0.0085         0.179482   
     36. D(H   4,O   2,C   0,H   3)      0.0085         0.179482   
     37. D(C   0,H   3,O   1,H   4)    179.9851         0.001501   
     38. D(O   2,H   3,C   0,O   1)    179.9862         0.001507   
     39. D(O   2,H   3,C   0,H   4)    179.9749         0.001507   
     40. D(H   4,H   3,O   2,C   0)      0.0244         0.001501   
     41. D(H   4,H   3,C   0,O   2)   -179.9749         0.001507   
     42. D(H   4,H   3,O   1,C   0)   -179.9851         0.001501   
     43. D(O   1,H   3,C   0,O   2)   -179.9862         0.001507   
     44. D(H   4,H   3,C   0,O   1)      0.0114         0.001507   
     45. D(O   1,H   3,C   0,H   4)     -0.0114         0.001507   
     46. D(C   0,H   3,O   2,H   4)     -0.0244         0.001501   
     47. D(H   3,H   4,C   0,O   1)   -179.9881         0.001515   
     48. D(O   2,H   4,H   3,C   0)      0.0115         2.624664   
     49. D(O   1,H   4,H   3,O   2)     -0.0184         2.624664   
     50. D(C   0,H   4,H   3,O   2)     -0.0115         2.624664   
     51. D(C   0,H   4,H   3,O   1)      0.0068         2.624664   
     52. D(C   0,H   4,O   2,H   3)    179.9710         0.001500   
     53. D(H   3,H   4,O   2,C   0)   -179.9710         0.001500   
     54. D(C   0,H   4,O   1,H   3)     -0.0135         0.001519   
     55. D(H   3,H   4,O   1,C   0)      0.0135         0.001519   
     56. D(O   2,H   4,C   0,H   3)     -0.0262         0.001515   
     57. D(O   2,H   4,C   0,O   1)    179.9858         0.001515   
     58. D(O   1,H   4,H   3,C   0)     -0.0068         2.624664   
     59. D(O   1,H   4,C   0,H   3)    179.9881         0.001515   
     60. D(O   1,H   4,C   0,O   2)   -179.9858         0.001515   
     61. D(O   2,H   4,H   3,O   1)      0.0184         2.624664   
     62. D(H   3,H   4,C   0,O   2)      0.0262         0.001515   
    -----------------------------------------------------------------

Number of atoms                         .... 5
Number of degrees of freedom            .... 62

         *************************************************************
         *                GEOMETRY OPTIMIZATION CYCLE   1            *
         *************************************************************
---------------------------------
CARTESIAN COORDINATES (ANGSTROEM)
---------------------------------
  C     -0.067565    0.297307   -0.061055
  O     -1.215925    0.116462   -0.103963
  O      1.083644    0.454964   -0.013826
  H      0.328279   -1.972712    0.397688
  H     -0.424748   -1.889982    0.331084

----------------------------
CARTESIAN COORDINATES (A.U.)
----------------------------
  NO LB      ZA    FRAG     MASS         X           Y           Z
   0 C     6.0000    0    12.011   -0.127679    0.561829   -0.115377
   1 O     8.0000    0    15.999   -2.297765    0.220081   -0.196462
   2 O     8.0000    0    15.999    2.047790    0.859757   -0.026127
   3 H     1.0000    0     1.008    0.620357   -3.727885    0.751521
   4 H     1.0000    0     1.008   -0.802657   -3.571548    0.625658

--------------------------------
INTERNAL COORDINATES (ANGSTROEM)
--------------------------------
 C      0   0   0     0.000000000000     0.00000000     0.00000000
 O      1   0   0     1.163304216484     0.00000000     0.00000000
 O      1   2   0     1.162913784324   178.82976789     0.00000000
 H      1   2   3     2.349494386617    91.33617260   359.32705162
 H      4   1   2     0.760480117061    73.19972368     0.00000000

---------------------------
INTERNAL COORDINATES (A.U.)
---------------------------
 C      0   0   0     0.000000000000     0.00000000     0.00000000
 O      1   0   0     2.198326379590     0.00000000     0.00000000
 O      1   2   0     2.197588569735   178.82976789     0.00000000
 H      1   2   3     4.439900943892    91.33617260   359.32705162
 H      4   1   2     1.437099151538    73.19972368     0.00000000

---------------------
BASIS SET INFORMATION
---------------------
There are 3 groups of distinct atoms

 Group   1 Type C   : 7s4p1d contracted to 3s2p1d pattern {511/31/1}
 Group   2 Type O   : 7s4p1d contracted to 3s2p1d pattern {511/31/1}
 Group   3 Type H   : 4s contracted to 2s pattern {31}

Atom   0C    basis set group =>   1
Atom   1O    basis set group =>   2
Atom   2O    basis set group =>   2
Atom   3H    basis set group =>   3
Atom   4H    basis set group =>   3
------------------------------------------------------------------------------
                           ORCA GTO INTEGRAL CALCULATION
------------------------------------------------------------------------------

                         BASIS SET STATISTICS AND STARTUP INFO

 # of primitive gaussian shells          ...   44
 # of primitive gaussian functions       ...   80
 # of contracted shells                  ...   22
 # of contracted basis functions         ...   46
 Highest angular momentum                ...    2
 Maximum contraction depth               ...    5
 Integral package used                   ... LIBINT
 Integral threshhold            Thresh   ...  2.500e-11
 Primitive cut-off              TCut     ...  2.500e-12


------------------------------ INTEGRAL EVALUATION ----------------------------


 * One electron integrals 
 Pre-screening matrix                    ... done
 Shell pair data                         ... done (   0.000 sec)

-------------------------------------------------------------------------------
                                 ORCA SCF
-------------------------------------------------------------------------------

------------
SCF SETTINGS
------------
Hamiltonian:
 Density Functional     Method          .... DFT(GTOs)
 Exchange Functional    Exchange        .... B88
   X-Alpha parameter    XAlpha          ....  0.666667
   Becke's b parameter  XBeta           ....  0.004200
 Correlation Functional Correlation     .... LYP
 LDA part of GGA corr.  LDAOpt          .... VWN-5
 Gradients option       PostSCFGGA      .... off
 Hybrid DFT is turned on
   Fraction HF Exchange ScalHFX         ....  0.200000
   Scaling of DF-GGA-X  ScalDFX         ....  0.720000
   Scaling of DF-GGA-C  ScalDFC         ....  0.810000
   Scaling of DF-LDA-C  ScalLDAC        ....  1.000000
   Perturbative correction              ....  0.000000
   Density functional embedding theory  .... OFF
   NL short-range parameter             ....  4.800000


General Settings:
 Integral files         IntName         .... input
 Hartree-Fock type      HFTyp           .... UHF
 Total Charge           Charge          ....    0
 Multiplicity           Mult            ....    1
 Number of Electrons    NEL             ....   24
 Basis Dimension        Dim             ....   46
 Nuclear Repulsion      ENuc            ....     68.3691760656 Eh

Convergence Acceleration:
 DIIS                   CNVDIIS         .... on
   Start iteration      DIISMaxIt       ....     0
   Startup error        DIISStart       ....  1.000000
   # of expansion vecs  DIISMaxEq       ....     5
   Bias factor          DIISBfac        ....   1.050
   Max. coefficient     DIISMaxC        ....  10.000
 Newton-Raphson         CNVNR           .... off
 SOSCF                  CNVSOSCF        .... on
   Start iteration      SOSCFMaxIt      ....   150
   Startup grad/error   SOSCFStart      ....  0.003300
 Level Shifting         CNVShift        .... off
 Zerner damping         CNVZerner       .... off
 Static damping         CNVDamp         .... off
 Fernandez-Rico         CNVRico         .... off

SCF Procedure:
 Maximum # iterations   MaxIter         ....   125
 SCF integral mode      SCFMode         .... Direct
   Integral package                     .... LIBINT
 Reset frequency        DirectResetFreq ....    20
 Integral Threshold     Thresh          ....  2.500e-11 Eh
 Primitive CutOff       TCut            ....  2.500e-12 Eh

Convergence Tolerance:
 Convergence Check Mode ConvCheckMode   .... Total+1el-Energy
 Convergence forced     ConvForced      .... 0
 Energy Change          TolE            ....  1.000e-08 Eh
 1-El. energy change                    ....  1.000e-05 Eh
 Orbital Gradient       TolG            ....  1.000e-05
 Orbital Rotation angle TolX            ....  1.000e-05
 DIIS Error             TolErr          ....  5.000e-07


Diagonalization of the overlap matrix:
Smallest eigenvalue                        ... 8.203e-03
Time for diagonalization                   ...    0.001 sec
Threshold for overlap eigenvalues          ... 1.000e-08
Number of eigenvalues below threshold      ... 0
Time for construction of square roots      ...    0.000 sec
Total time needed                          ...    0.001 sec

-------------------
DFT GRID GENERATION
-------------------

General Integration Accuracy     IntAcc      ...  4.340
Radial Grid Type                 RadialGrid  ... Gauss-Chebyshev
Angular Grid (max. acc.)         AngularGrid ... Lebedev-110
Angular grid pruning method      GridPruning ... 3 (G Style)
Weight generation scheme         WeightScheme... Becke
Basis function cutoff            BFCut       ...    1.0000e-11
Integration weight cutoff        WCut        ...    1.0000e-14
Grids for H and He will be reduced by one unit

# of grid points (after initial pruning)     ...   6676 (   0.0 sec)
# of grid points (after weights+screening)   ...   6551 (   0.0 sec)
nearest neighbour list constructed           ...    0.0 sec
Grid point re-assignment to atoms done       ...    0.0 sec
Grid point division into batches done        ...    0.0 sec
Reduced shell lists constructed in    0.0 sec

Total number of grid points                  ...     6551
Total number of batches                      ...      104
Average number of points per batch           ...       62
Average number of grid points per atom       ...     1310
Average number of shells per batch           ...    18.60 (84.55%)
Average number of basis functions per batch  ...    39.74 (86.40%)
Average number of large shells per batch     ...    16.33 (87.81%)
Average number of large basis fcns per batch ...    34.30 (86.29%)
Maximum spatial batch extension              ...  18.14, 19.49, 25.65 au
Average spatial batch extension              ...   3.90,  5.13,  5.35 au

Time for grid setup =    0.044 sec

------------------------------
INITIAL GUESS: MODEL POTENTIAL
------------------------------
Loading Hartree-Fock densities                     ... done
Calculating cut-offs                               ... done
Setting up the integral package                    ... done
Initializing the effective Hamiltonian             ... done
Starting the Coulomb interaction                   ... done (   0.0 sec)
Reading the grid                                   ... done
Mapping shells                                     ... done
Starting the XC term evaluation                    ... done (   0.0 sec)
  promolecular density results
     # of electrons  =     23.999586656
     EX              =    -22.081379055
     EC              =     -0.830536640
     EX+EC           =    -22.911915695
Transforming the Hamiltonian                       ... done (   0.0 sec)
Diagonalizing the Hamiltonian                      ... done (   0.0 sec)
Back transforming the eigenvectors                 ... done (   0.0 sec)
Now organizing SCF variables                       ... done
                      ------------------
                      INITIAL GUESS DONE (   0.2 sec)
                      ------------------
--------------
SCF ITERATIONS
--------------
ITER       Energy         Delta-E        Max-DP      RMS-DP      [F,P]   Gradient Norm
               ***  Starting incremental Fock matrix formation  ***
                             ****Resetting KDIIS****
                             ****Turning on KDIIS(Cayley)****
  0   -189.4033481115   0.000000000000 0.01863346  0.00124235  0.1393565   0.116596935
  1   -189.4561088601  -0.052760748616 0.02309539  0.00123979  0.1034555   0.085108873
  2   -189.4900207760  -0.033911915918 0.01636142  0.00103178  0.0622578   0.058213244
  3   -189.5081122374  -0.018091461393 0.02067322  0.00136687  0.0370277   0.033915558
  4   -189.5157748473  -0.007662609878 0.00440974  0.00026483  0.0228021   0.008404001
  5   -189.5165758552  -0.000801007897 0.01464692  0.00083377  0.0191730   0.006183228
                      *** Initiating the SOSCF procedure ***
                           *** Shutting down KDIIS ***
                      *** Re-Reading the Fockian *** 
                      *** Removing any level shift *** 
ITER      Energy       Delta-E        Grad      Rot      Max-DP    RMS-DP
  6   -189.51794664  -0.0013707885  0.003163  0.003163  0.001443  0.000139
               *** Restarting incremental Fock matrix formation ***
  7   -189.51800030  -0.0000536588  0.000484  0.000812  0.000778  0.000054
  8   -189.51799794   0.0000023596  0.000848  0.000548  0.000502  0.000029
  9   -189.51800244  -0.0000044996  0.000133  0.000269  0.000230  0.000013
 10   -189.51800219   0.0000002500  0.000274  0.000209  0.000167  0.000009
 11   -189.51800257  -0.0000003768  0.000048  0.000062  0.000095  0.000005
 12   -189.51800257  -0.0000000028  0.000052  0.000033  0.000047  0.000003
                  ***Gradient check signals convergence***
              ***Rediagonalizing the Fockian in SOSCF/NRSCF***

               *****************************************************
               *                     SUCCESS                       *
               *           SCF CONVERGED AFTER  13 CYCLES          *
               *****************************************************

Setting up the final grid:

General Integration Accuracy     IntAcc      ...  4.670
Radial Grid Type                 RadialGrid  ... Gauss-Chebyshev
Angular Grid (max. acc.)         AngularGrid ... Lebedev-302
Angular grid pruning method      GridPruning ... 3 (G Style)
Weight generation scheme         WeightScheme... Becke
Basis function cutoff            BFCut       ...    1.0000e-11
Integration weight cutoff        WCut        ...    1.0000e-14
Grids for H and He will be reduced by one unit

# of grid points (after initial pruning)     ...  25424 (   0.0 sec)
# of grid points (after weights+screening)   ...  24866 (   0.0 sec)
nearest neighbour list constructed           ...    0.0 sec
Grid point re-assignment to atoms done       ...    0.0 sec
Grid point division into batches done        ...    0.1 sec
Reduced shell lists constructed in    0.1 sec

Total number of grid points                  ...    24866
Total number of batches                      ...      391
Average number of points per batch           ...       63
Average number of grid points per atom       ...     4973
Average number of shells per batch           ...    16.83 (76.52%)
Average number of basis functions per batch  ...    35.78 (77.78%)
Average number of large shells per batch     ...    14.46 (85.91%)
Average number of large basis fcns per batch ...    30.03 (83.94%)
Maximum spatial batch extension              ...  17.86, 17.78, 23.22 au
Average spatial batch extension              ...   2.87,  3.24,  3.40 au

Final grid set up in    0.2 sec
Final integration                            ... done (   0.1 sec)
Change in XC energy                          ...    -0.000017532
Integrated number of electrons               ...    23.999983660
Previous integrated no of electrons          ...    24.000022323

----------------
TOTAL SCF ENERGY
----------------

Total Energy       :         -189.51802013 Eh           -5157.04751 eV

Components:
Nuclear Repulsion  :           68.36917607 Eh            1860.41986 eV
Electronic Energy  :         -257.88719619 Eh           -7017.46737 eV
One Electron Energy:         -393.66896075 Eh          -10712.27702 eV
Two Electron Energy:          135.78176455 Eh            3694.80965 eV

Virial components:
Potential Energy   :         -377.68020262 Eh          -10277.20080 eV
Kinetic Energy     :          188.16218249 Eh            5120.15329 eV
Virial Ratio       :            2.00720569


DFT components:
N(Alpha)           :       11.999991830090 electrons
N(Beta)            :       11.999991830090 electrons
N(Total)           :       23.999983660181 electrons
E(X)               :      -17.731597558600 Eh       
E(C)               :       -0.983578114078 Eh       
E(XC)              :      -18.715175672678 Eh       
DFET-embed. en.    :        0.000000000000 Eh       

---------------
SCF CONVERGENCE
---------------

  Last Energy change         ...   -2.5110e-08  Tolerance :   1.0000e-08
  Last MAX-Density change    ...    1.1255e-06  Tolerance :   1.0000e-07
  Last RMS-Density change    ...    5.1596e-08  Tolerance :   5.0000e-09
  Last Orbital Gradient      ...    8.5886e-07  Tolerance :   1.0000e-05
  Last Orbital Rotation      ...    6.7385e-07  Tolerance :   1.0000e-05

             **** THE GBW FILE WAS UPDATED (input.gbw) ****
             **** DENSITY FILE WAS UPDATED (input.scfp.tmp) ****
             **** ENERGY FILE WAS UPDATED (input.en.tmp) ****
----------------------
UHF SPIN CONTAMINATION
----------------------

Warning: in a DFT calculation there is little theoretical justification to 
         calculate <S**2> as in Hartree-Fock theory. We will do it anyways
         but you should keep in mind that the values have only limited relevance

Expectation value of <S**2>     :    -0.000000
Ideal value S*(S+1) for S=0.0   :     0.000000
Deviation                       :    -0.000000

----------------
ORBITAL ENERGIES
----------------
                 SPIN UP ORBITALS
  NO   OCC          E(Eh)            E(eV) 
   0   1.0000     -19.215139      -522.8705 
   1   1.0000     -19.213441      -522.8243 
   2   1.0000     -10.376653      -282.3631 
   3   1.0000      -1.147894       -31.2358 
   4   1.0000      -1.108833       -30.1729 
   5   1.0000      -0.551919       -15.0185 
   6   1.0000      -0.530648       -14.4397 
   7   1.0000      -0.516562       -14.0564 
   8   1.0000      -0.514908       -14.0114 
   9   1.0000      -0.423778       -11.5316 
  10   1.0000      -0.371184       -10.1004 
  11   1.0000      -0.370530       -10.0826 
  12   0.0000       0.029666         0.8073 
  13   0.0000       0.033007         0.8982 
  14   0.0000       0.078067         2.1243 
  15   0.0000       0.081870         2.2278 
  16   0.0000       0.347438         9.4543 
  17   0.0000       0.373241        10.1564 
  18   0.0000       0.415202        11.2982 
  19   0.0000       0.446597        12.1525 
  20   0.0000       0.504209        13.7202 
  21   0.0000       0.734628        19.9902 
  22   0.0000       0.785801        21.3827 
  23   0.0000       0.817130        22.2352 
  24   0.0000       0.901378        24.5277 
  25   0.0000       0.957088        26.0437 
  26   0.0000       1.083930        29.4952 
  27   0.0000       1.091613        29.7043 
  28   0.0000       1.105919        30.0936 
  29   0.0000       1.254644        34.1406 
  30   0.0000       1.528415        41.5903 
  31   0.0000       1.536619        41.8135 
  32   0.0000       1.574434        42.8425 
  33   0.0000       1.574633        42.8479 
  34   0.0000       1.593072        43.3497 
  35   0.0000       2.548582        69.3504 
  36   0.0000       2.552383        69.4539 
  37   0.0000       2.667884        72.5968 
  38   0.0000       2.668853        72.6232 
  39   0.0000       2.763326        75.1939 
  40   0.0000       2.765115        75.2426 
  41   0.0000       2.831981        77.0621 
  42   0.0000       3.536924        96.2446 
  43   0.0000       3.541201        96.3610 
  44   0.0000       3.548918        96.5710 
  45   0.0000       3.852170       104.8229 

                 SPIN DOWN ORBITALS
  NO   OCC          E(Eh)            E(eV) 
   0   1.0000     -19.215139      -522.8705 
   1   1.0000     -19.213441      -522.8243 
   2   1.0000     -10.376653      -282.3631 
   3   1.0000      -1.147894       -31.2358 
   4   1.0000      -1.108833       -30.1729 
   5   1.0000      -0.551919       -15.0185 
   6   1.0000      -0.530648       -14.4397 
   7   1.0000      -0.516562       -14.0564 
   8   1.0000      -0.514908       -14.0114 
   9   1.0000      -0.423778       -11.5316 
  10   1.0000      -0.371184       -10.1004 
  11   1.0000      -0.370530       -10.0826 
  12   0.0000       0.029666         0.8073 
  13   0.0000       0.033007         0.8982 
  14   0.0000       0.078067         2.1243 
  15   0.0000       0.081870         2.2278 
  16   0.0000       0.347438         9.4543 
  17   0.0000       0.373241        10.1564 
  18   0.0000       0.415202        11.2982 
  19   0.0000       0.446597        12.1525 
  20   0.0000       0.504209        13.7202 
  21   0.0000       0.734628        19.9902 
  22   0.0000       0.785801        21.3827 
  23   0.0000       0.817130        22.2352 
  24   0.0000       0.901378        24.5277 
  25   0.0000       0.957088        26.0437 
  26   0.0000       1.083930        29.4952 
  27   0.0000       1.091613        29.7043 
  28   0.0000       1.105919        30.0936 
  29   0.0000       1.254644        34.1406 
  30   0.0000       1.528415        41.5903 
  31   0.0000       1.536619        41.8135 
  32   0.0000       1.574434        42.8425 
  33   0.0000       1.574633        42.8479 
  34   0.0000       1.593072        43.3497 
  35   0.0000       2.548582        69.3504 
  36   0.0000       2.552383        69.4539 
  37   0.0000       2.667884        72.5968 
  38   0.0000       2.668853        72.6232 
  39   0.0000       2.763326        75.1939 
  40   0.0000       2.765115        75.2426 
  41   0.0000       2.831981        77.0621 
  42   0.0000       3.536924        96.2446 
  43   0.0000       3.541201        96.3610 
  44   0.0000       3.548918        96.5710 
  45   0.0000       3.852170       104.8229 

                    ********************************
                    * MULLIKEN POPULATION ANALYSIS *
                    ********************************

--------------------------------------------
MULLIKEN ATOMIC CHARGES AND SPIN POPULATIONS
--------------------------------------------
   0 C :    0.251353    0.000000
   1 O :   -0.132884    0.000000
   2 O :   -0.123502    0.000000
   3 H :   -0.014305    0.000000
   4 H :    0.019338    0.000000
Sum of atomic charges         :   -0.0000000
Sum of atomic spin populations:    0.0000000

-----------------------------------------------------
MULLIKEN REDUCED ORBITAL CHARGES AND SPIN POPULATIONS
-----------------------------------------------------
CHARGE
  0 C s       :     2.976891  s :     2.976891
      pz      :     0.824228  p :     2.624530
      px      :     0.974566
      py      :     0.825736
      dz2     :     0.007787  d :     0.147226
      dxz     :     0.056350
      dyz     :     0.001381
      dx2y2   :     0.026852
      dxy     :     0.054857
  1 O s       :     3.725704  s :     3.725704
      pz      :     1.551825  p :     4.383934
      px      :     1.290313
      py      :     1.541796
      dz2     :     0.002433  d :     0.023246
      dxz     :     0.006590
      dyz     :     0.000176
      dx2y2   :     0.007319
      dxy     :     0.006728
  2 O s       :     3.719080  s :     3.719080
      pz      :     1.551775  p :     4.381149
      px      :     1.287308
      py      :     1.542066
      dz2     :     0.002437  d :     0.023273
      dxz     :     0.006642
      dyz     :     0.000136
      dx2y2   :     0.007240
      dxy     :     0.006819
  3 H s       :     1.014305  s :     1.014305
  4 H s       :     0.980662  s :     0.980662

SPIN
  0 C s       :     0.000000  s :     0.000000
      pz      :     0.000000  p :     0.000000
      px      :     0.000000
      py      :     0.000000
      dz2     :     0.000000  d :     0.000000
      dxz     :     0.000000
      dyz     :     0.000000
      dx2y2   :     0.000000
      dxy     :     0.000000
  1 O s       :     0.000000  s :     0.000000
      pz      :     0.000000  p :     0.000000
      px      :     0.000000
      py      :     0.000000
      dz2     :     0.000000  d :     0.000000
      dxz     :     0.000000
      dyz     :     0.000000
      dx2y2   :     0.000000
      dxy     :     0.000000
  2 O s       :     0.000000  s :     0.000000
      pz      :     0.000000  p :     0.000000
      px      :     0.000000
      py      :     0.000000
      dz2     :     0.000000  d :     0.000000
      dxz     :     0.000000
      dyz     :     0.000000
      dx2y2   :     0.000000
      dxy     :     0.000000
  3 H s       :     0.000000  s :     0.000000
  4 H s       :     0.000000  s :     0.000000


                     *******************************
                     * LOEWDIN POPULATION ANALYSIS *
                     *******************************

-------------------------------------------
LOEWDIN ATOMIC CHARGES AND SPIN POPULATIONS
-------------------------------------------
   0 C :    0.123399    0.000000
   1 O :   -0.070393    0.000000
   2 O :   -0.063562    0.000000
   3 H :   -0.006122    0.000000
   4 H :    0.016677    0.000000

----------------------------------------------------
LOEWDIN REDUCED ORBITAL CHARGES AND SPIN POPULATIONS
----------------------------------------------------
CHARGE
  0 C s       :     2.815126  s :     2.815126
      pz      :     0.820207  p :     2.742420
      px      :     1.094971
      py      :     0.827242
      dz2     :     0.021953  d :     0.319055
      dxz     :     0.112980
      dyz     :     0.002694
      dx2y2   :     0.070648
      dxy     :     0.110781
  1 O s       :     3.530341  s :     3.530341
      pz      :     1.523849  p :     4.502069
      px      :     1.453103
      py      :     1.525117
      dz2     :     0.005291  d :     0.037983
      dxz     :     0.008145
      dyz     :     0.000217
      dx2y2   :     0.015352
      dxy     :     0.008979
  2 O s       :     3.530511  s :     3.530511
      pz      :     1.523887  p :     4.495063
      px      :     1.450717
      py      :     1.520458
      dz2     :     0.005299  d :     0.037987
      dxz     :     0.008220
      dyz     :     0.000169
      dx2y2   :     0.015389
      dxy     :     0.008911
  3 H s       :     1.006122  s :     1.006122
  4 H s       :     0.983323  s :     0.983323

SPIN
  0 C s       :     0.000000  s :     0.000000
      pz      :     0.000000  p :     0.000000
      px      :     0.000000
      py      :     0.000000
      dz2     :     0.000000  d :     0.000000
      dxz     :     0.000000
      dyz     :     0.000000
      dx2y2   :     0.000000
      dxy     :     0.000000
  1 O s       :     0.000000  s :     0.000000
      pz      :     0.000000  p :     0.000000
      px      :     0.000000
      py      :     0.000000
      dz2     :     0.000000  d :     0.000000
      dxz     :     0.000000
      dyz     :     0.000000
      dx2y2   :     0.000000
      dxy     :     0.000000
  2 O s       :     0.000000  s :     0.000000
      pz      :     0.000000  p :     0.000000
      px      :     0.000000
      py      :     0.000000
      dz2     :     0.000000  d :     0.000000
      dxz     :     0.000000
      dyz     :     0.000000
      dx2y2   :     0.000000
      dxy     :     0.000000
  3 H s       :     0.000000  s :     0.000000
  4 H s       :     0.000000  s :     0.000000


                      *****************************
                      * MAYER POPULATION ANALYSIS *
                      *****************************

  NA   - Mulliken gross atomic population
  ZA   - Total nuclear charge
  QA   - Mulliken gross atomic charge
  VA   - Mayer's total valence
  BVA  - Mayer's bonded valence
  FA   - Mayer's free valence

  ATOM       NA         ZA         QA         VA         BVA        FA
  0 C      5.7486     6.0000     0.2514     4.3703     4.3703    -0.0000
  1 O      8.1329     8.0000    -0.1329     2.4365     2.4365    -0.0000
  2 O      8.1235     8.0000    -0.1235     2.4513     2.4513    -0.0000
  3 H      1.0143     1.0000    -0.0143     0.9968     0.9968    -0.0000
  4 H      0.9807     1.0000     0.0193     1.0046     1.0046    -0.0000

  Mayer bond orders larger than 0.1
B(  0-C ,  1-O ) :   2.1475 B(  0-C ,  2-O ) :   2.1743 B(  1-O ,  2-O ) :   0.2623 
B(  3-H ,  4-H ) :   0.9557 

-------
TIMINGS
-------

Total SCF time: 0 days 0 hours 0 min 3 sec 

Total time                  ....       3.452 sec
Sum of individual times     ....       3.271 sec  ( 94.8%)

Fock matrix formation       ....       2.945 sec  ( 85.3%)
  XC integration            ....       0.510 sec  ( 17.3% of F)
    Basis function eval.    ....       0.158 sec  ( 30.9% of XC)
    Density eval.           ....       0.115 sec  ( 22.5% of XC)
    XC-Functional eval.     ....       0.079 sec  ( 15.5% of XC)
    XC-Potential eval.      ....       0.134 sec  ( 26.2% of XC)
Diagonalization             ....       0.003 sec  (  0.1%)
Density matrix formation    ....       0.000 sec  (  0.0%)
Population analysis         ....       0.001 sec  (  0.0%)
Initial guess               ....       0.124 sec  (  3.6%)
Orbital Transformation      ....       0.000 sec  (  0.0%)
Orbital Orthonormalization  ....       0.000 sec  (  0.0%)
DIIS solution               ....       0.000 sec  (  0.0%)
SOSCF solution              ....       0.002 sec  (  0.1%)
Grid generation             ....       0.195 sec  (  5.7%)

-------------------------   --------------------
FINAL SINGLE POINT ENERGY      -189.518020128922
-------------------------   --------------------

------------------------------------------------------------------------------
                         ORCA SCF GRADIENT CALCULATION
------------------------------------------------------------------------------

Gradient of the Kohn-Sham DFT energy:
Kohn-Sham wavefunction type      ... UKS
Hartree-Fock exchange scaling    ...    0.200
Number of operators              ...    2
Number of atoms                  ...    5
Basis set dimensions             ...   46
Integral neglect threshold       ... 2.5e-11
Integral primitive cutoff        ... 2.5e-12

Nuclear repulsion gradient       ... done
One Electron Gradient            ... done
Pre-screening matrix             ... done
Starting the two electron gradient:
Two electron gradient done
Exchange-correlation gradient    ... done

------------------
CARTESIAN GRADIENT
------------------

   1   C   :    0.000018625   -0.004725436    0.000912965
   2   O   :    0.001888660   -0.007889218    0.001629713
   3   O   :    0.001094749   -0.002051747    0.000453909
   4   H   :   -0.001656529    0.006659822   -0.001379879
   5   H   :   -0.001345504    0.008006578   -0.001616707

Difference to translation invariance:
           :   -0.0000000000   -0.0000000000    0.0000000000

Norm of the cartesian gradient     ...    0.0146550790
RMS gradient                       ...    0.0037839251
MAX gradient                       ...    0.0080065784

-------
TIMINGS
-------

Total SCF gradient time            ...        0.766 sec

One electron gradient       ....       0.005 sec  (  0.6%)
Prescreening matrices       ....       0.015 sec  (  1.9%)
Two electron gradient       ....       0.189 sec  ( 24.7%)
XC gradient                 ....       0.418 sec  ( 54.5%)
------------------------------------------------------------------------------
                         ORCA GEOMETRY RELAXATION STEP
------------------------------------------------------------------------------

Reading the OPT-File                    .... done
Getting information on internals        .... done
Copying old internal coords+grads       .... done
Making the new internal coordinates     .... (new redundants).... done
Validating the new internal coordinates .... (new redundants).... done
Calculating the B-matrix                .... done
Calculating the G,G- and P matrices     .... done
Transforming gradient to internals      .... done
Projecting the internal gradient        .... done
Number of atoms                         ....   5
Number of internal coordinates          ....  62
Current Energy                          ....  -189.518020129 Eh
Current gradient norm                   ....     0.014655079 Eh/bohr
Maximum allowed component of the step   ....  0.300
Current trust radius                    ....  0.300
Evaluating the initial hessian          ....  (Almloef) done
Projecting the Hessian                  .... done
Forming the augmented Hessian           .... done
Diagonalizing the augmented Hessian     .... done
Last element of RFO vector              ....  0.856961239
Lowest eigenvalues of augmented Hessian:
 -0.004037584  0.010761834  0.060680548  0.078912484  0.094668151
Length of the computed step             ....  0.601405104
Warning: the length of the step is outside the trust region - taking restricted step instead
The input lambda is                     ....    -0.004038
   iter:   1  x=   -0.008143  g=   66.170927 f(x)=     0.271688
   iter:   2  x=   -0.012139  g=   25.362737 f(x)=     0.101345
   iter:   3  x=   -0.014516  g=   12.500587 f(x)=     0.029706
   iter:   4  x=   -0.015058  g=    8.784016 f(x)=     0.004762
   iter:   5  x=   -0.015079  g=    8.149665 f(x)=     0.000175
   iter:   6  x=   -0.015079  g=    8.125843 f(x)=     0.000000
   iter:   7  x=   -0.015079  g=    8.125808 f(x)=     0.000000
   iter:   8  x=   -0.015079  g=    8.125808 f(x)=     0.000000
The output lambda is                    ....    -0.015079 (8 iterations)
The final length of the internal step   ....  0.300000000
Converting the step to cartesian space:
 Initial RMS(Int)=    0.0381000381
Transforming coordinates:
 Iter   0:  RMS(Cart)=    0.0370801929 RMS(Int)=    0.0381449878
 Iter   1:  RMS(Cart)=    0.0001874172 RMS(Int)=    0.0001355882
 Iter   2:  RMS(Cart)=    0.0000015623 RMS(Int)=    0.0000015244
 Iter   3:  RMS(Cart)=    0.0000000140 RMS(Int)=    0.0000000097
done
Storing new coordinates                 .... done

                                .--------------------.
          ----------------------|Geometry convergence|-------------------------
          Item                value                   Tolerance       Converged
          ---------------------------------------------------------------------
          RMS gradient        0.0009402921            0.0001000000      NO
          MAX gradient        0.0041760554            0.0003000000      NO
          RMS step            0.0381000381            0.0020000000      NO
          MAX step            0.1408599787            0.0040000000      NO
          ........................................................
          Max(Bonds)      0.0745      Max(Angles)    1.37
          Max(Dihed)        0.00      Max(Improp)    0.00
          ---------------------------------------------------------------------

The optimization has not yet converged - more geometry cycles are needed


    ---------------------------------------------------------------------------
                         Redundant Internal Coordinates
                            (Angstroem and degrees)

        Definition                    Value    dE/dq     Step     New-Value
    ----------------------------------------------------------------------------
     1. B(O   1,C   0)                1.1633  0.000935  0.0007    1.1640   
     2. B(O   2,C   0)                1.1629  0.001401 -0.0000    1.1629   
     3. B(H   3,O   1)                2.6459 -0.003240  0.0671    2.7130   
     4. B(H   3,O   2)                2.5756 -0.001702  0.0596    2.6352   
     5. B(H   3,C   0)                2.3495 -0.002544  0.0638    2.4133   
     6. B(H   4,O   1)                2.2002 -0.004176  0.0745    2.2748   
     7. B(H   4,H   3)                0.7605  0.000363  0.0012    0.7616   
     8. B(H   4,C   0)                2.2507 -0.002615  0.0627    2.3133   
     9. B(H   4,O   2)                2.8094 -0.001036  0.0520    2.8614   
    10. A(H   3,C   0,H   4)           18.87  0.000281   -0.50     18.37   
    11. A(O   1,C   0,H   3)           91.34 -0.000710    0.53     91.86   
    12. A(O   1,C   0,H   4)           72.46 -0.000991    1.02     73.49   
    13. A(O   2,C   0,H   3)           87.49 -0.000004    0.14     87.64   
    14. A(O   2,C   0,H   4)          106.37  0.000277   -0.35    106.01   
    15. A(H   3,O   1,H   4)           14.67  0.000162   -0.27     14.40   
    16. A(C   0,O   1,H   4)           77.26  0.000339   -0.10     77.16   
    17. A(C   0,O   1,H   3)           62.59  0.000176    0.17     62.76   
    18. A(C   0,O   2,H   3)           65.69 -0.000495    0.52     66.22   
    19. A(C   0,O   2,H   4)           50.23 -0.000602    0.77     51.00   
    20. A(H   3,O   2,H   4)           15.46  0.000107   -0.24     15.22   
    21. A(C   0,H   3,H   4)           73.20 -0.000153    0.17     73.37   
    22. A(C   0,H   3,O   1)           26.07  0.000533   -0.70     25.38   
    23. A(O   1,H   3,H   4)           47.13 -0.000687    0.87     47.99   
    24. A(C   0,H   3,O   2)           26.81  0.000499   -0.67     26.15   
    25. A(O   2,H   3,H   4)          100.01  0.000346   -0.50     99.51   
    26. A(O   1,H   3,O   2)           52.89  0.001032   -1.37     51.52   
    27. A(C   0,H   4,O   1)           30.27  0.000652   -0.92     29.35   
    28. A(O   1,H   4,H   3)          118.20  0.000524   -0.59    117.61   
    29. A(C   0,H   4,H   3)           87.93 -0.000128    0.33     88.26   
    30. A(O   1,H   4,O   2)           53.68  0.000977   -1.34     52.34   
    31. A(C   0,H   4,O   2)           23.40  0.000325   -0.41     22.99   
    32. A(O   2,H   4,H   3)           64.53 -0.000453    0.74     65.27   
    33. D(H   4,O   1,C   0,H   3)     -0.00  0.000000   -0.00     -0.00   
    34. D(H   3,O   1,C   0,H   4)      0.00 -0.000000    0.00      0.00   
    35. D(H   3,O   2,C   0,H   4)     -0.01 -0.000000    0.00     -0.01   
    36. D(H   4,O   2,C   0,H   3)      0.01  0.000000   -0.00      0.01   
    37. D(C   0,H   3,O   1,H   4)    179.99  0.000001   -0.00    179.98   
    38. D(O   2,H   3,C   0,O   1)    179.99 -0.000001    0.00    179.99   
    39. D(O   2,H   3,C   0,H   4)    179.97 -0.000001   -0.00    179.97   
    40. D(H   4,H   3,O   2,C   0)      0.02  0.000001    0.00      0.02   
    41. D(H   4,H   3,C   0,O   2)   -179.97  0.000001    0.00   -179.97   
    42. D(H   4,H   3,O   1,C   0)   -179.99 -0.000001    0.00   -179.98   
    43. D(O   1,H   3,C   0,O   2)   -179.99  0.000001   -0.00   -179.99   
    44. D(H   4,H   3,C   0,O   1)      0.01 -0.000001    0.00      0.01   
    45. D(O   1,H   3,C   0,H   4)     -0.01  0.000001   -0.00     -0.01   
    46. D(C   0,H   3,O   2,H   4)     -0.02 -0.000001   -0.00     -0.02   
    47. D(H   3,H   4,C   0,O   1)   -179.99 -0.000000    0.00   -179.99   
    48. D(O   2,H   4,H   3,C   0)      0.01  0.000001   -0.00      0.01   
    49. D(O   1,H   4,H   3,O   2)     -0.02 -0.000000    0.00     -0.02   
    50. D(C   0,H   4,H   3,O   2)     -0.01 -0.000001    0.00     -0.01   
    51. D(C   0,H   4,H   3,O   1)      0.01 -0.000000    0.00      0.01   
    52. D(C   0,H   4,O   2,H   3)    179.97 -0.000001    0.00    179.97   
    53. D(H   3,H   4,O   2,C   0)   -179.97  0.000001   -0.00   -179.97   
    54. D(C   0,H   4,O   1,H   3)     -0.01  0.000000   -0.00     -0.01   
    55. D(H   3,H   4,O   1,C   0)      0.01 -0.000000    0.00      0.01   
    56. D(O   2,H   4,C   0,H   3)     -0.03 -0.000001   -0.00     -0.03   
    57. D(O   2,H   4,C   0,O   1)    179.99 -0.000001    0.00    179.99   
    58. D(O   1,H   4,H   3,C   0)     -0.01  0.000000   -0.00     -0.01   
    59. D(O   1,H   4,C   0,H   3)    179.99  0.000000   -0.00    179.99   
    60. D(O   1,H   4,C   0,O   2)   -179.99  0.000001   -0.00   -179.99   
    61. D(O   2,H   4,H   3,O   1)      0.02  0.000000   -0.00      0.02   
    62. D(H   3,H   4,C   0,O   2)      0.03  0.000001    0.00      0.03   
    ----------------------------------------------------------------------------

         *************************************************************
         *                GEOMETRY OPTIMIZATION CYCLE   2            *
         *************************************************************
---------------------------------
CARTESIAN COORDINATES (ANGSTROEM)
---------------------------------
  C     -0.069098    0.319843   -0.065453
  O     -1.219760    0.151677   -0.110921
  O      1.081857    0.477768   -0.018285
  H      0.332417   -2.012769    0.405594
  H     -0.421732   -1.930480    0.338993

----------------------------
CARTESIAN COORDINATES (A.U.)
----------------------------
  NO LB      ZA    FRAG     MASS         X           Y           Z
   0 C     6.0000    0    12.011   -0.130576    0.604416   -0.123687
   1 O     8.0000    0    15.999   -2.305011    0.286628   -0.209610
   2 O     8.0000    0    15.999    2.044414    0.902850   -0.034554
   3 H     1.0000    0     1.008    0.628177   -3.803582    0.766462
   4 H     1.0000    0     1.008   -0.796957   -3.648078    0.640604

--------------------------------
INTERNAL COORDINATES (ANGSTROEM)
--------------------------------
 C      0   0   0     0.000000000000     0.00000000     0.00000000
 O      1   0   0     1.163773588074     0.00000000     0.00000000
 O      1   2   0     1.162696711322   179.49119098     0.00000000
 H      1   2   3     2.413333115293    91.85999445   358.52825847
 H      4   1   2     0.761542614354    73.36525332     0.00000000

---------------------------
INTERNAL COORDINATES (A.U.)
---------------------------
 C      0   0   0     0.000000000000     0.00000000     0.00000000
 O      1   0   0     2.199213363351     0.00000000     0.00000000
 O      1   2   0     2.197178361209   179.49119098     0.00000000
 H      1   2   3     4.560538657827    91.85999445   358.52825847
 H      4   1   2     1.439106980440    73.36525332     0.00000000


Diagonalization of the overlap matrix:
Smallest eigenvalue                        ... 8.241e-03
Time for diagonalization                   ...    0.001 sec
Threshold for overlap eigenvalues          ... 1.000e-08
Number of eigenvalues below threshold      ... 0
Time for construction of square roots      ...    0.000 sec
Total time needed                          ...    0.001 sec

-------------------
DFT GRID GENERATION
-------------------

General Integration Accuracy     IntAcc      ...  4.340
Radial Grid Type                 RadialGrid  ... Gauss-Chebyshev
Angular Grid (max. acc.)         AngularGrid ... Lebedev-110
Angular grid pruning method      GridPruning ... 3 (G Style)
Weight generation scheme         WeightScheme... Becke
Basis function cutoff            BFCut       ...    1.0000e-11
Integration weight cutoff        WCut        ...    1.0000e-14
Grids for H and He will be reduced by one unit

# of grid points (after initial pruning)     ...   6676 (   0.0 sec)
# of grid points (after weights+screening)   ...   6550 (   0.0 sec)
nearest neighbour list constructed           ...    0.0 sec
Grid point re-assignment to atoms done       ...    0.0 sec
Grid point division into batches done        ...    0.0 sec
Reduced shell lists constructed in    0.0 sec

Total number of grid points                  ...     6550
Total number of batches                      ...      105
Average number of points per batch           ...       62
Average number of grid points per atom       ...     1310
Average number of shells per batch           ...    18.66 (84.82%)
Average number of basis functions per batch  ...    39.94 (86.83%)
Average number of large shells per batch     ...    16.36 (87.66%)
Average number of large basis fcns per batch ...    34.42 (86.16%)
Maximum spatial batch extension              ...  18.14, 20.05, 25.65 au
Average spatial batch extension              ...   4.06,  5.07,  5.37 au

Time for grid setup =    0.044 sec

--------------
SCF ITERATIONS
--------------
ITER       Energy         Delta-E        Max-DP      RMS-DP      [F,P]   Gradient Norm
               ***  Starting incremental Fock matrix formation  ***
                             ****Resetting KDIIS****
                             ****Turning on KDIIS(Cayley)****
                      *** Initiating the SOSCF procedure ***
                           *** Shutting down KDIIS ***
                      *** Re-Reading the Fockian *** 
                      *** Removing any level shift *** 
ITER      Energy       Delta-E        Grad      Rot      Max-DP    RMS-DP
  0   -189.51966931 -189.5196693072  0.002581  0.002581  0.000394  0.000029
               *** Restarting incremental Fock matrix formation ***
  1   -189.51969358  -0.0000242765  0.002328  0.002617  0.003553  0.000263
  2   -189.51980399  -0.0001104110  0.000259  0.000444  0.000323  0.000026
  3   -189.51980430  -0.0000003009  0.000442  0.000469  0.000273  0.000018
  4   -189.51980481  -0.0000005118  0.000242  0.000191  0.000118  0.000011
  5   -189.51980518  -0.0000003702  0.000074  0.000071  0.000061  0.000004
  6   -189.51980522  -0.0000000460  0.000062  0.000060  0.000052  0.000003
  7   -189.51980524  -0.0000000115  0.000029  0.000022  0.000027  0.000002
  8   -189.51980524  -0.0000000093  0.000006  0.000003  0.000004  0.000000
                  ***Gradient check signals convergence***
              ***Rediagonalizing the Fockian in SOSCF/NRSCF***

               *****************************************************
               *                     SUCCESS                       *
               *           SCF CONVERGED AFTER   9 CYCLES          *
               *****************************************************

Setting up the final grid:

General Integration Accuracy     IntAcc      ...  4.670
Radial Grid Type                 RadialGrid  ... Gauss-Chebyshev
Angular Grid (max. acc.)         AngularGrid ... Lebedev-302
Angular grid pruning method      GridPruning ... 3 (G Style)
Weight generation scheme         WeightScheme... Becke
Basis function cutoff            BFCut       ...    1.0000e-11
Integration weight cutoff        WCut        ...    1.0000e-14
Grids for H and He will be reduced by one unit

# of grid points (after initial pruning)     ...  25424 (   0.0 sec)
# of grid points (after weights+screening)   ...  24874 (   0.0 sec)
nearest neighbour list constructed           ...    0.0 sec
Grid point re-assignment to atoms done       ...    0.0 sec
Grid point division into batches done        ...    0.1 sec
Reduced shell lists constructed in    0.2 sec

Total number of grid points                  ...    24874
Total number of batches                      ...      391
Average number of points per batch           ...       63
Average number of grid points per atom       ...     4975
Average number of shells per batch           ...    16.76 (76.18%)
Average number of basis functions per batch  ...    35.53 (77.24%)
Average number of large shells per batch     ...    14.40 (85.91%)
Average number of large basis fcns per batch ...    29.86 (84.05%)
Maximum spatial batch extension              ...  17.86, 17.32, 23.22 au
Average spatial batch extension              ...   2.93,  3.24,  3.40 au

Final grid set up in    0.2 sec
Final integration                            ... done (   0.1 sec)
Change in XC energy                          ...    -0.000023275
Integrated number of electrons               ...    23.999987916
Previous integrated no of electrons          ...    24.000150638
Total Energy       :         -189.51982852 Eh           -5157.09672 eV
  Last Energy change         ...   -2.8504e-10  Tolerance :   1.0000e-08
  Last MAX-Density change    ...    1.0664e-06  Tolerance :   1.0000e-07
             **** THE GBW FILE WAS UPDATED (input.gbw) ****
             **** DENSITY FILE WAS UPDATED (input.scfp.tmp) ****
             **** ENERGY FILE WAS UPDATED (input.en.tmp) ****
----------------------
UHF SPIN CONTAMINATION
----------------------

Warning: in a DFT calculation there is little theoretical justification to 
         calculate <S**2> as in Hartree-Fock theory. We will do it anyways
         but you should keep in mind that the values have only limited relevance

Expectation value of <S**2>     :     0.000000
Ideal value S*(S+1) for S=0.0   :     0.000000
Deviation                       :     0.000000

Total SCF time: 0 days 0 hours 0 min 2 sec 

-------------------------   --------------------
FINAL SINGLE POINT ENERGY      -189.519828519222
-------------------------   --------------------

------------------------------------------------------------------------------
                         ORCA SCF GRADIENT CALCULATION
------------------------------------------------------------------------------

Gradient of the Kohn-Sham DFT energy:
Kohn-Sham wavefunction type      ... UKS
Hartree-Fock exchange scaling    ...    0.200
Number of operators              ...    2
Number of atoms                  ...    5
Basis set dimensions             ...   46
Integral neglect threshold       ... 2.5e-11
Integral primitive cutoff        ... 2.5e-12

Nuclear repulsion gradient       ... done
One Electron Gradient            ... done
Pre-screening matrix             ... done
Starting the two electron gradient:
Two electron gradient done
Exchange-correlation gradient    ... done

------------------
CARTESIAN GRADIENT
------------------

   1   C   :    0.001552171   -0.004581069    0.001002707
   2   O   :    0.000350406   -0.005717812    0.001103754
   3   O   :    0.000336115   -0.001193088    0.000233452
   4   H   :   -0.000989117    0.005189662   -0.001057462
   5   H   :   -0.001249574    0.006302307   -0.001282451

Difference to translation invariance:
           :    0.0000000000   -0.0000000000    0.0000000000

Norm of the cartesian gradient     ...    0.0114882792
RMS gradient                       ...    0.0029662609
MAX gradient                       ...    0.0063023065

-------
TIMINGS
-------

Total SCF gradient time            ...        0.769 sec

One electron gradient       ....       0.005 sec  (  0.6%)
Prescreening matrices       ....       0.014 sec  (  1.9%)
Two electron gradient       ....       0.189 sec  ( 24.6%)
XC gradient                 ....       0.419 sec  ( 54.5%)
------------------------------------------------------------------------------
                         ORCA GEOMETRY RELAXATION STEP
------------------------------------------------------------------------------

Reading the OPT-File                    .... done
Getting information on internals        .... done
Copying old internal coords+grads       .... done
Making the new internal coordinates     .... (new redundants).... done
Validating the new internal coordinates .... (new redundants).... done
Calculating the B-matrix                .... done
Calculating the G,G- and P matrices     .... done
Transforming gradient to internals      .... done
Projecting the internal gradient        .... done
Number of atoms                         ....   5
Number of internal coordinates          ....  62
Current Energy                          ....  -189.519828519 Eh
Current gradient norm                   ....     0.011488279 Eh/bohr
Maximum allowed component of the step   ....  0.300
Current trust radius                    ....  0.300
Updating the Hessian (BFGS)             .... done
Forming the augmented Hessian           .... done
Diagonalizing the augmented Hessian     .... done
Last element of RFO vector              ....  0.846976518
Lowest eigenvalues of augmented Hessian:
 -0.003339783  0.008312085  0.055291522  0.078912560  0.094589213
Length of the computed step             ....  0.627680095
Warning: the length of the step is outside the trust region - taking restricted step instead
The input lambda is                     ....    -0.003340
   iter:   1  x=   -0.006572  g=   94.036008 f(x)=     0.303982
   iter:   2  x=   -0.009838  g=   35.298405 f(x)=     0.115257
   iter:   3  x=   -0.011934  g=   16.779650 f(x)=     0.035182
   iter:   4  x=   -0.012488  g=   11.298425 f(x)=     0.006250
   iter:   5  x=   -0.012516  g=   10.262364 f(x)=     0.000293
   iter:   6  x=   -0.012516  g=   10.212447 f(x)=     0.000001
   iter:   7  x=   -0.012516  g=   10.212325 f(x)=     0.000000
   iter:   8  x=   -0.012516  g=   10.212325 f(x)=     0.000000
The output lambda is                    ....    -0.012516 (8 iterations)
The final length of the internal step   ....  0.300000000
Converting the step to cartesian space:
 Initial RMS(Int)=    0.0381000381
Transforming coordinates:
 Iter   0:  RMS(Cart)=    0.0371278634 RMS(Int)=    0.0381419473
 Iter   1:  RMS(Cart)=    0.0001743402 RMS(Int)=    0.0001280021
 Iter   2:  RMS(Cart)=    0.0000013392 RMS(Int)=    0.0000012849
 Iter   3:  RMS(Cart)=    0.0000000098 RMS(Int)=    0.0000000075
done
Storing new coordinates                 .... done

                                .--------------------.
          ----------------------|Geometry convergence|-------------------------
          Item                value                   Tolerance       Converged
          ---------------------------------------------------------------------
          Energy change      -0.0018083903            0.0000050000      NO
          RMS gradient        0.0007399404            0.0001000000      NO
          MAX gradient        0.0031213488            0.0003000000      NO
          RMS step            0.0381000381            0.0020000000      NO
          MAX step            0.1451325860            0.0040000000      NO
          ........................................................
          Max(Bonds)      0.0768      Max(Angles)    1.34
          Max(Dihed)        0.00      Max(Improp)    0.00
          ---------------------------------------------------------------------

The optimization has not yet converged - more geometry cycles are needed


    ---------------------------------------------------------------------------
                         Redundant Internal Coordinates
                            (Angstroem and degrees)

        Definition                    Value    dE/dq     Step     New-Value
    ----------------------------------------------------------------------------
     1. B(O   1,C   0)                1.1638  0.001421 -0.0005    1.1632   
     2. B(O   2,C   0)                1.1627  0.000587 -0.0004    1.1623   
     3. B(H   3,O   1)                2.7131 -0.002243  0.0680    2.7811   
     4. B(H   3,O   2)                2.6352 -0.001272  0.0552    2.6903   
     5. B(H   3,C   0)                2.4133 -0.002248  0.0652    2.4785   
     6. B(H   4,O   1)                2.2748 -0.003121  0.0768    2.3516   
     7. B(H   4,H   3)                0.7615  0.000464 -0.0006    0.7609   
     8. B(H   4,C   0)                2.3134 -0.002198  0.0642    2.3776   
     9. B(H   4,O   2)                2.8615 -0.000763  0.0477    2.9092   
    10. A(H   3,C   0,H   4)           18.39  0.000269   -0.54     17.84   
    11. A(O   1,C   0,H   3)           91.86 -0.000441    0.53     92.39   
    12. A(O   1,C   0,H   4)           73.47 -0.000710    1.07     74.55   
    13. A(O   2,C   0,H   3)           87.63  0.000253   -0.16     87.47   
    14. A(O   2,C   0,H   4)          106.02  0.000522   -0.70    105.31   
    15. A(H   3,O   1,H   4)           14.40  0.000136   -0.31     14.09   
    16. A(C   0,O   1,H   4)           77.15  0.000056   -0.12     77.04   
    17. A(C   0,O   1,H   3)           62.75 -0.000080    0.19     62.94   
    18. A(C   0,O   2,H   3)           66.21 -0.000515    0.78     66.99   
    19. A(C   0,O   2,H   4)           50.99 -0.000632    1.04     52.03   
    20. A(H   3,O   2,H   4)           15.22  0.000117   -0.26     14.96   
    21. A(C   0,H   3,H   4)           73.37 -0.000055    0.19     73.55   
    22. A(C   0,H   3,O   1)           25.39  0.000521   -0.72     24.67   
    23. A(O   1,H   3,H   4)           47.98 -0.000576    0.91     48.89   
    24. A(C   0,H   3,O   2)           26.16  0.000262   -0.62     25.54   
    25. A(O   2,H   3,H   4)           99.52  0.000207   -0.43     99.09   
    26. A(O   1,H   3,O   2)           51.54  0.000783   -1.34     50.21   
    27. A(C   0,H   4,O   1)           29.37  0.000654   -0.95     28.42   
    28. A(O   1,H   4,H   3)          117.62  0.000440   -0.60    117.02   
    29. A(C   0,H   4,H   3)           88.25 -0.000214    0.36     88.60   
    30. A(O   1,H   4,O   2)           52.36  0.000763   -1.29     51.07   
    31. A(C   0,H   4,O   2)           22.99  0.000110   -0.33     22.66   
    32. A(O   2,H   4,H   3)           65.26 -0.000323    0.69     65.95   
    33. D(H   4,O   1,C   0,H   3)     -0.00  0.000000   -0.00     -0.00   
    34. D(H   3,O   1,C   0,H   4)      0.00 -0.000000    0.00      0.00   
    35. D(H   3,O   2,C   0,H   4)     -0.01 -0.000001    0.00     -0.01   
    36. D(H   4,O   2,C   0,H   3)      0.01  0.000001   -0.00      0.01   
    37. D(C   0,H   3,O   1,H   4)    179.98  0.000002   -0.00    179.98   
    38. D(O   2,H   3,C   0,O   1)    179.99 -0.000003    0.00    179.99   
    39. D(O   2,H   3,C   0,H   4)    179.97 -0.000002    0.00    179.98   
    40. D(H   4,H   3,O   2,C   0)      0.02  0.000001   -0.00      0.02   
    41. D(H   4,H   3,C   0,O   2)   -179.97  0.000002   -0.00   -179.98   
    42. D(H   4,H   3,O   1,C   0)   -179.98 -0.000002    0.00   -179.98   
    43. D(O   1,H   3,C   0,O   2)   -179.99  0.000003   -0.00   -179.99   
    44. D(H   4,H   3,C   0,O   1)      0.01 -0.000001    0.00      0.01   
    45. D(O   1,H   3,C   0,H   4)     -0.01  0.000001   -0.00     -0.01   
    46. D(C   0,H   3,O   2,H   4)     -0.02 -0.000001    0.00     -0.02   
    47. D(H   3,H   4,C   0,O   1)   -179.99 -0.000001    0.00   -179.99   
    48. D(O   2,H   4,H   3,C   0)      0.01  0.000001   -0.00      0.01   
    49. D(O   1,H   4,H   3,O   2)     -0.02 -0.000000    0.00     -0.02   
    50. D(C   0,H   4,H   3,O   2)     -0.01 -0.000001    0.00     -0.01   
    51. D(C   0,H   4,H   3,O   1)      0.01 -0.000001    0.00      0.01   
    52. D(C   0,H   4,O   2,H   3)    179.97 -0.000002    0.00    179.97   
    53. D(H   3,H   4,O   2,C   0)   -179.97  0.000002   -0.00   -179.97   
    54. D(C   0,H   4,O   1,H   3)     -0.01  0.000002   -0.00     -0.02   
    55. D(H   3,H   4,O   1,C   0)      0.01 -0.000002    0.00      0.02   
    56. D(O   2,H   4,C   0,H   3)     -0.03 -0.000002    0.00     -0.02   
    57. D(O   2,H   4,C   0,O   1)    179.99 -0.000003    0.00    179.99   
    58. D(O   1,H   4,H   3,C   0)     -0.01  0.000001   -0.00     -0.01   
    59. D(O   1,H   4,C   0,H   3)    179.99  0.000001   -0.00    179.99   
    60. D(O   1,H   4,C   0,O   2)   -179.99  0.000003   -0.00   -179.99   
    61. D(O   2,H   4,H   3,O   1)      0.02  0.000000   -0.00      0.02   
    62. D(H   3,H   4,C   0,O   2)      0.03  0.000002   -0.00      0.02   
    ----------------------------------------------------------------------------

         *************************************************************
         *                GEOMETRY OPTIMIZATION CYCLE   3            *
         *************************************************************
---------------------------------
CARTESIAN COORDINATES (ANGSTROEM)
---------------------------------
  C     -0.072037    0.344177   -0.070307
  O     -1.223263    0.188226   -0.118101
  O      1.078865    0.496905   -0.022118
  H      0.336800   -2.052106    0.413379
  H     -0.416679   -1.971163    0.347075

----------------------------
CARTESIAN COORDINATES (A.U.)
----------------------------
  NO LB      ZA    FRAG     MASS         X           Y           Z
   0 C     6.0000    0    12.011   -0.136131    0.650400   -0.132861
   1 O     8.0000    0    15.999   -2.311632    0.355696   -0.223178
   2 O     8.0000    0    15.999    2.038759    0.939014   -0.041796
   3 H     1.0000    0     1.008    0.636459   -3.877918    0.781172
   4 H     1.0000    0     1.008   -0.787409   -3.724959    0.655876

--------------------------------
INTERNAL COORDINATES (ANGSTROEM)
--------------------------------
 C      0   0   0     0.000000000000     0.00000000     0.00000000
 O      1   0   0     1.162723544055     0.00000000     0.00000000
 O      1   2   0     1.161990997982   179.84324288     0.00000000
 H      1   2   3     2.478562485819    92.38801315   356.53380533
 H      4   1   2     0.760708858599    73.54495912     0.00000000

---------------------------
INTERNAL COORDINATES (A.U.)
---------------------------
 C      0   0   0     0.000000000000     0.00000000     0.00000000
 O      1   0   0     2.197229067726     0.00000000     0.00000000
 O      1   2   0     2.195844756267   179.84324288     0.00000000
 H      1   2   3     4.683804304010    92.38801315   356.53380533
 H      4   1   2     1.437531410399    73.54495912     0.00000000


Diagonalization of the overlap matrix:
Smallest eigenvalue                        ... 8.287e-03
Time for diagonalization                   ...    0.001 sec
Threshold for overlap eigenvalues          ... 1.000e-08
Number of eigenvalues below threshold      ... 0
Time for construction of square roots      ...    0.000 sec
Total time needed                          ...    0.001 sec

-------------------
DFT GRID GENERATION
-------------------

General Integration Accuracy     IntAcc      ...  4.340
Radial Grid Type                 RadialGrid  ... Gauss-Chebyshev
Angular Grid (max. acc.)         AngularGrid ... Lebedev-110
Angular grid pruning method      GridPruning ... 3 (G Style)
Weight generation scheme         WeightScheme... Becke
Basis function cutoff            BFCut       ...    1.0000e-11
Integration weight cutoff        WCut        ...    1.0000e-14
Grids for H and He will be reduced by one unit

# of grid points (after initial pruning)     ...   6676 (   0.0 sec)
# of grid points (after weights+screening)   ...   6550 (   0.0 sec)
nearest neighbour list constructed           ...    0.0 sec
Grid point re-assignment to atoms done       ...    0.0 sec
Grid point division into batches done        ...    0.0 sec
Reduced shell lists constructed in    0.0 sec

Total number of grid points                  ...     6550
Total number of batches                      ...      105
Average number of points per batch           ...       62
Average number of grid points per atom       ...     1310
Average number of shells per batch           ...    18.58 (84.43%)
Average number of basis functions per batch  ...    39.65 (86.20%)
Average number of large shells per batch     ...    16.20 (87.20%)
Average number of large basis fcns per batch ...    34.08 (85.96%)
Maximum spatial batch extension              ...  18.14, 19.49, 25.65 au
Average spatial batch extension              ...   4.03,  5.07,  5.43 au

Time for grid setup =    0.044 sec

--------------
SCF ITERATIONS
--------------
ITER       Energy         Delta-E        Max-DP      RMS-DP      [F,P]   Gradient Norm
               ***  Starting incremental Fock matrix formation  ***
                             ****Resetting KDIIS****
                             ****Turning on KDIIS(Cayley)****
                      *** Initiating the SOSCF procedure ***
                           *** Shutting down KDIIS ***
                      *** Re-Reading the Fockian *** 
                      *** Removing any level shift *** 
ITER      Energy       Delta-E        Grad      Rot      Max-DP    RMS-DP
  0   -189.52107341 -189.5210734099  0.002822  0.002822  0.000320  0.000026
               *** Restarting incremental Fock matrix formation ***
  1   -189.52109749  -0.0000240805  0.002555  0.003450  0.002890  0.000234
  2   -189.52120739  -0.0001098985  0.000309  0.000373  0.000259  0.000025
  3   -189.52120832  -0.0000009315  0.000209  0.000180  0.000202  0.000011
  4   -189.52120849  -0.0000001680  0.000147  0.000164  0.000124  0.000008
  5   -189.52120855  -0.0000000605  0.000094  0.000082  0.000091  0.000005
  6   -189.52120862  -0.0000000670  0.000054  0.000068  0.000071  0.000003
  7   -189.52120862  -0.0000000017  0.000049  0.000034  0.000051  0.000002
  8   -189.52120863  -0.0000000167  0.000006  0.000003  0.000004  0.000000
                  ***Gradient check signals convergence***
              ***Rediagonalizing the Fockian in SOSCF/NRSCF***

               *****************************************************
               *                     SUCCESS                       *
               *           SCF CONVERGED AFTER   9 CYCLES          *
               *****************************************************

Setting up the final grid:

General Integration Accuracy     IntAcc      ...  4.670
Radial Grid Type                 RadialGrid  ... Gauss-Chebyshev
Angular Grid (max. acc.)         AngularGrid ... Lebedev-302
Angular grid pruning method      GridPruning ... 3 (G Style)
Weight generation scheme         WeightScheme... Becke
Basis function cutoff            BFCut       ...    1.0000e-11
Integration weight cutoff        WCut        ...    1.0000e-14
Grids for H and He will be reduced by one unit

# of grid points (after initial pruning)     ...  25424 (   0.0 sec)
# of grid points (after weights+screening)   ...  24876 (   0.0 sec)
nearest neighbour list constructed           ...    0.0 sec
Grid point re-assignment to atoms done       ...    0.0 sec
Grid point division into batches done        ...    0.1 sec
Reduced shell lists constructed in    0.1 sec

Total number of grid points                  ...    24876
Total number of batches                      ...      391
Average number of points per batch           ...       63
Average number of grid points per atom       ...     4975
Average number of shells per batch           ...    16.72 (76.01%)
Average number of basis functions per batch  ...    35.38 (76.91%)
Average number of large shells per batch     ...    14.28 (85.39%)
Average number of large basis fcns per batch ...    29.62 (83.73%)
Maximum spatial batch extension              ...  17.86, 17.32, 23.21 au
Average spatial batch extension              ...   2.94,  3.26,  3.42 au

Final grid set up in    0.2 sec
Final integration                            ... done (   0.1 sec)
Change in XC energy                          ...    -0.000032757
Integrated number of electrons               ...    23.999989250
Previous integrated no of electrons          ...    24.000232037
Total Energy       :         -189.52124139 Eh           -5157.13516 eV
  Last Energy change         ...   -2.3681e-10  Tolerance :   1.0000e-08
  Last MAX-Density change    ...    7.9428e-07  Tolerance :   1.0000e-07
             **** THE GBW FILE WAS UPDATED (input.gbw) ****
             **** DENSITY FILE WAS UPDATED (input.scfp.tmp) ****
             **** ENERGY FILE WAS UPDATED (input.en.tmp) ****
----------------------
UHF SPIN CONTAMINATION
----------------------

Warning: in a DFT calculation there is little theoretical justification to 
         calculate <S**2> as in Hartree-Fock theory. We will do it anyways
         but you should keep in mind that the values have only limited relevance

Expectation value of <S**2>     :    -0.000000
Ideal value S*(S+1) for S=0.0   :     0.000000
Deviation                       :    -0.000000

Total SCF time: 0 days 0 hours 0 min 2 sec 

-------------------------   --------------------
FINAL SINGLE POINT ENERGY      -189.521241391554
-------------------------   --------------------

------------------------------------------------------------------------------
                         ORCA SCF GRADIENT CALCULATION
------------------------------------------------------------------------------

Gradient of the Kohn-Sham DFT energy:
Kohn-Sham wavefunction type      ... UKS
Hartree-Fock exchange scaling    ...    0.200
Number of operators              ...    2
Number of atoms                  ...    5
Basis set dimensions             ...   46
Integral neglect threshold       ... 2.5e-11
Integral primitive cutoff        ... 2.5e-12

Nuclear repulsion gradient       ... done
One Electron Gradient            ... done
Pre-screening matrix             ... done
Starting the two electron gradient:
Two electron gradient done
Exchange-correlation gradient    ... done

------------------
CARTESIAN GRADIENT
------------------

   1   C   :    0.000987283   -0.004191082    0.000891892
   2   O   :    0.002178572   -0.003741609    0.000847615
   3   O   :   -0.001558869   -0.000930487    0.000055753
   4   H   :   -0.001634691    0.004075648   -0.000890767
   5   H   :    0.000027706    0.004787530   -0.000904493

Difference to translation invariance:
           :   -0.0000000000   -0.0000000000    0.0000000000

Norm of the cartesian gradient     ...    0.0092690088
RMS gradient                       ...    0.0023932478
MAX gradient                       ...    0.0047875297

-------
TIMINGS
-------

Total SCF gradient time            ...        0.879 sec

One electron gradient       ....       0.005 sec  (  0.5%)
Prescreening matrices       ....       0.015 sec  (  1.7%)
Two electron gradient       ....       0.206 sec  ( 23.4%)
XC gradient                 ....       0.512 sec  ( 58.2%)
------------------------------------------------------------------------------
                         ORCA GEOMETRY RELAXATION STEP
------------------------------------------------------------------------------

Reading the OPT-File                    .... done
Getting information on internals        .... done
Copying old internal coords+grads       .... done
Making the new internal coordinates     .... (new redundants).... done
Validating the new internal coordinates .... (new redundants).... done
Calculating the B-matrix                .... done
[...]
Average spatial batch extension              ...   4.22,  5.08,  5.18 au

Time for grid setup =    0.045 sec

--------------
SCF ITERATIONS
--------------
ITER       Energy         Delta-E        Max-DP      RMS-DP      [F,P]   Gradient Norm
               ***  Starting incremental Fock matrix formation  ***
                             ****Resetting KDIIS****
                             ****Turning on KDIIS(Cayley)****
                      *** Initiating the SOSCF procedure ***
                           *** Shutting down KDIIS ***
                      *** Re-Reading the Fockian *** 
                      *** Removing any level shift *** 
ITER      Energy       Delta-E        Grad      Rot      Max-DP    RMS-DP
  0   -189.52475192 -189.5247519235  0.000206  0.000206  0.000016  0.000001
               *** Restarting incremental Fock matrix formation ***
  1   -189.52475199  -0.0000000669  0.000187  0.000234  0.000145  0.000010
  2   -189.52475230  -0.0000003116  0.000022  0.000027  0.000014  0.000001
  3   -189.52475230  -0.0000000027  0.000003  0.000005  0.000003  0.000000
  4   -189.52475230   0.0000000000  0.000003  0.000003  0.000002  0.000000
                  ***Gradient check signals convergence***
              ***Rediagonalizing the Fockian in SOSCF/NRSCF***

               *****************************************************
               *                     SUCCESS                       *
               *           SCF CONVERGED AFTER   5 CYCLES          *
               *****************************************************

Setting up the final grid:

General Integration Accuracy     IntAcc      ...  4.670
Radial Grid Type                 RadialGrid  ... Gauss-Chebyshev
Angular Grid (max. acc.)         AngularGrid ... Lebedev-302
Angular grid pruning method      GridPruning ... 3 (G Style)
Weight generation scheme         WeightScheme... Becke
Basis function cutoff            BFCut       ...    1.0000e-11
Integration weight cutoff        WCut        ...    1.0000e-14
Grids for H and He will be reduced by one unit

# of grid points (after initial pruning)     ...  25424 (   0.0 sec)
# of grid points (after weights+screening)   ...  24958 (   0.0 sec)
nearest neighbour list constructed           ...    0.0 sec
Grid point re-assignment to atoms done       ...    0.0 sec
Grid point division into batches done        ...    0.1 sec
Reduced shell lists constructed in    0.1 sec

Total number of grid points                  ...    24958
Total number of batches                      ...      392
Average number of points per batch           ...       63
Average number of grid points per atom       ...     4992
Average number of shells per batch           ...    15.93 (72.41%)
Average number of basis functions per batch  ...    33.21 (72.20%)
Average number of large shells per batch     ...    13.15 (82.51%)
Average number of large basis fcns per batch ...    27.34 (82.31%)
Maximum spatial batch extension              ...  18.98, 17.32, 20.18 au
Average spatial batch extension              ...   2.93,  3.27,  3.44 au

Final grid set up in    0.2 sec
Final integration                            ... done (   0.1 sec)
Change in XC energy                          ...    -0.000307175
Integrated number of electrons               ...    23.999990344
Previous integrated no of electrons          ...    23.998834770

----------------
TOTAL SCF ENERGY
----------------

Total Energy       :         -189.52505948 Eh           -5157.23906 eV

Components:
Nuclear Repulsion  :           66.08959532 Eh            1798.38932 eV
Electronic Energy  :         -255.61465480 Eh           -6955.62837 eV
One Electron Energy:         -389.16334094 Eh          -10589.67288 eV
Two Electron Energy:          133.54868615 Eh            3634.04450 eV

Virial components:
Potential Energy   :         -377.63708521 Eh          -10276.02751 eV
Kinetic Energy     :          188.11202573 Eh            5118.78845 eV
Virial Ratio       :            2.00751166


DFT components:
N(Alpha)           :       11.999995171911 electrons
N(Beta)            :       11.999995171911 electrons
N(Total)           :       23.999990343822 electrons
E(X)               :      -17.723621453558 Eh       
E(C)               :       -0.979592858827 Eh       
E(XC)              :      -18.703214312385 Eh       
DFET-embed. en.    :        0.000000000000 Eh       

---------------
SCF CONVERGENCE
---------------

  Last Energy change         ...   -2.5182e-11  Tolerance :   1.0000e-08
  Last MAX-Density change    ...    1.3307e-06  Tolerance :   1.0000e-07
  Last RMS-Density change    ...    8.2161e-08  Tolerance :   5.0000e-09
  Last Orbital Gradient      ...    1.4462e-06  Tolerance :   1.0000e-05
  Last Orbital Rotation      ...    1.8133e-06  Tolerance :   1.0000e-05

             **** THE GBW FILE WAS UPDATED (input.gbw) ****
             **** DENSITY FILE WAS UPDATED (input.scfp.tmp) ****
             **** ENERGY FILE WAS UPDATED (input.en.tmp) ****
----------------------
UHF SPIN CONTAMINATION
----------------------

Warning: in a DFT calculation there is little theoretical justification to 
         calculate <S**2> as in Hartree-Fock theory. We will do it anyways
         but you should keep in mind that the values have only limited relevance

Expectation value of <S**2>     :     0.000000
Ideal value S*(S+1) for S=0.0   :     0.000000
Deviation                       :     0.000000

----------------
ORBITAL ENERGIES
----------------
                 SPIN UP ORBITALS
  NO   OCC          E(Eh)            E(eV) 
   0   1.0000     -19.214193      -522.8448 
   1   1.0000     -19.214121      -522.8428 
   2   1.0000     -10.375786      -282.3395 
   3   1.0000      -1.146638       -31.2016 
   4   1.0000      -1.107832       -30.1457 
   5   1.0000      -0.550539       -14.9809 
   6   1.0000      -0.516356       -14.0508 
   7   1.0000      -0.515565       -14.0292 
   8   1.0000      -0.513702       -13.9786 
   9   1.0000      -0.431034       -11.7290 
  10   1.0000      -0.369897       -10.0654 
  11   1.0000      -0.369669       -10.0592 
  12   0.0000       0.034098         0.9279 
  13   0.0000       0.034537         0.9398 
  14   0.0000       0.062942         1.7127 
  15   0.0000       0.068809         1.8724 
  16   0.0000       0.327475         8.9111 
  17   0.0000       0.354601         9.6492 
  18   0.0000       0.418012        11.3747 
  19   0.0000       0.447237        12.1699 
  20   0.0000       0.501144        13.6368 
  21   0.0000       0.751174        20.4405 
  22   0.0000       0.759826        20.6759 
  23   0.0000       0.808484        22.0000 
  24   0.0000       0.902459        24.5572 
  25   0.0000       0.932647        25.3786 
  26   0.0000       1.080450        29.4005 
  27   0.0000       1.093108        29.7450 
  28   0.0000       1.095492        29.8099 
  29   0.0000       1.242258        33.8036 
  30   0.0000       1.529674        41.6246 
  31   0.0000       1.531881        41.6846 
  32   0.0000       1.574917        42.8557 
  33   0.0000       1.575095        42.8605 
  34   0.0000       1.581103        43.0240 
  35   0.0000       2.549567        69.3773 
  36   0.0000       2.550360        69.3988 
  37   0.0000       2.668899        72.6244 
  38   0.0000       2.669217        72.6331 
  39   0.0000       2.765592        75.2556 
  40   0.0000       2.766300        75.2749 
  41   0.0000       2.827970        76.9530 
  42   0.0000       3.535317        96.2009 
  43   0.0000       3.541815        96.3777 
  44   0.0000       3.544025        96.4378 
  45   0.0000       3.847219       104.6882 

                 SPIN DOWN ORBITALS
  NO   OCC          E(Eh)            E(eV) 
   0   1.0000     -19.214193      -522.8448 
   1   1.0000     -19.214121      -522.8428 
   2   1.0000     -10.375786      -282.3395 
   3   1.0000      -1.146638       -31.2016 
   4   1.0000      -1.107832       -30.1457 
   5   1.0000      -0.550539       -14.9809 
   6   1.0000      -0.516356       -14.0508 
   7   1.0000      -0.515565       -14.0292 
   8   1.0000      -0.513702       -13.9786 
   9   1.0000      -0.431034       -11.7290 
  10   1.0000      -0.369897       -10.0654 
  11   1.0000      -0.369669       -10.0592 
  12   0.0000       0.034098         0.9279 
  13   0.0000       0.034537         0.9398 
  14   0.0000       0.062942         1.7127 
  15   0.0000       0.068809         1.8724 
  16   0.0000       0.327475         8.9111 
  17   0.0000       0.354601         9.6492 
  18   0.0000       0.418012        11.3747 
  19   0.0000       0.447237        12.1699 
  20   0.0000       0.501144        13.6368 
  21   0.0000       0.751174        20.4405 
  22   0.0000       0.759826        20.6759 
  23   0.0000       0.808484        22.0000 
  24   0.0000       0.902459        24.5572 
  25   0.0000       0.932647        25.3786 
  26   0.0000       1.080450        29.4005 
  27   0.0000       1.093108        29.7450 
  28   0.0000       1.095492        29.8099 
  29   0.0000       1.242258        33.8036 
  30   0.0000       1.529674        41.6246 
  31   0.0000       1.531881        41.6846 
  32   0.0000       1.574917        42.8557 
  33   0.0000       1.575095        42.8605 
  34   0.0000       1.581103        43.0240 
  35   0.0000       2.549567        69.3773 
  36   0.0000       2.550360        69.3988 
  37   0.0000       2.668899        72.6244 
  38   0.0000       2.669217        72.6331 
  39   0.0000       2.765592        75.2556 
  40   0.0000       2.766300        75.2749 
  41   0.0000       2.827970        76.9530 
  42   0.0000       3.535317        96.2009 
  43   0.0000       3.541815        96.3777 
  44   0.0000       3.544025        96.4378 
  45   0.0000       3.847219       104.6882 

                    ********************************
                    * MULLIKEN POPULATION ANALYSIS *
                    ********************************

--------------------------------------------
MULLIKEN ATOMIC CHARGES AND SPIN POPULATIONS
--------------------------------------------
   0 C :    0.264253    0.000000
   1 O :   -0.133357    0.000000
   2 O :   -0.132190    0.000000
   3 H :   -0.000602    0.000000
   4 H :    0.001897    0.000000
Sum of atomic charges         :    0.0000000
Sum of atomic spin populations:    0.0000000

-----------------------------------------------------
MULLIKEN REDUCED ORBITAL CHARGES AND SPIN POPULATIONS
-----------------------------------------------------
CHARGE
  0 C s       :     2.965933  s :     2.965933
      pz      :     0.823177  p :     2.623763
      px      :     0.976908
      py      :     0.823678
      dz2     :     0.007943  d :     0.146051
      dxz     :     0.057086
      dyz     :     0.000503
      dx2y2   :     0.023725
      dxy     :     0.056793
  1 O s       :     3.721463  s :     3.721463
      pz      :     1.552332  p :     4.388621
      px      :     1.285664
      py      :     1.550625
      dz2     :     0.002445  d :     0.023274
      dxz     :     0.006738
      dyz     :     0.000059
      dx2y2   :     0.007269
      dxy     :     0.006762
  2 O s       :     3.720743  s :     3.720743
      pz      :     1.552042  p :     4.388160
      px      :     1.285614
      py      :     1.550504
      dz2     :     0.002448  d :     0.023288
      dxz     :     0.006741
      dyz     :     0.000059
      dx2y2   :     0.007266
      dxy     :     0.006774
  3 H s       :     1.000602  s :     1.000602
  4 H s       :     0.998103  s :     0.998103

SPIN
  0 C s       :     0.000000  s :     0.000000
      pz      :     0.000000  p :     0.000000
      px      :     0.000000
      py      :     0.000000
      dz2     :     0.000000  d :     0.000000
      dxz     :     0.000000
      dyz     :     0.000000
      dx2y2   :     0.000000
      dxy     :     0.000000
  1 O s       :     0.000000  s :     0.000000
      pz      :     0.000000  p :     0.000000
      px      :     0.000000
      py      :     0.000000
      dz2     :     0.000000  d :     0.000000
      dxz     :     0.000000
      dyz     :     0.000000
      dx2y2   :     0.000000
      dxy     :     0.000000
  2 O s       :     0.000000  s :     0.000000
      pz      :     0.000000  p :     0.000000
      px      :     0.000000
      py      :     0.000000
      dz2     :     0.000000  d :     0.000000
      dxz     :     0.000000
      dyz     :     0.000000
      dx2y2   :     0.000000
      dxy     :     0.000000
  3 H s       :     0.000000  s :     0.000000
  4 H s       :     0.000000  s :     0.000000


                     *******************************
                     * LOEWDIN POPULATION ANALYSIS *
                     *******************************

-------------------------------------------
LOEWDIN ATOMIC CHARGES AND SPIN POPULATIONS
-------------------------------------------
   0 C :    0.134090    0.000000
   1 O :   -0.067459    0.000000
   2 O :   -0.066837    0.000000
   3 H :   -0.000187    0.000000
   4 H :    0.000393    0.000000

----------------------------------------------------
LOEWDIN REDUCED ORBITAL CHARGES AND SPIN POPULATIONS
----------------------------------------------------
CHARGE
  0 C s       :     2.810434  s :     2.810434
      pz      :     0.819664  p :     2.737901
      px      :     1.098115
      py      :     0.820122
      dz2     :     0.022168  d :     0.317575
      dxz     :     0.114504
      dyz     :     0.001006
      dx2y2   :     0.065951
      dxy     :     0.113945
  1 O s       :     3.531368  s :     3.531368
      pz      :     1.524246  p :     4.498165
      px      :     1.449979
      py      :     1.523940
      dz2     :     0.005299  d :     0.037926
      dxz     :     0.008352
      dyz     :     0.000073
      dx2y2   :     0.015727
      dxy     :     0.008474
  2 O s       :     3.531337  s :     3.531337
      pz      :     1.524018  p :     4.497562
      px      :     1.449974
      py      :     1.523570
      dz2     :     0.005302  d :     0.037938
      dxz     :     0.008356
      dyz     :     0.000073
      dx2y2   :     0.015723
      dxy     :     0.008485
  3 H s       :     1.000187  s :     1.000187
  4 H s       :     0.999607  s :     0.999607

SPIN
  0 C s       :     0.000000  s :     0.000000
      pz      :     0.000000  p :     0.000000
      px      :     0.000000
      py      :     0.000000
      dz2     :     0.000000  d :     0.000000
      dxz     :     0.000000
      dyz     :     0.000000
      dx2y2   :     0.000000
      dxy     :     0.000000
  1 O s       :     0.000000  s :     0.000000
      pz      :     0.000000  p :     0.000000
      px      :     0.000000
      py      :     0.000000
      dz2     :     0.000000  d :     0.000000
      dxz     :     0.000000
      dyz     :     0.000000
      dx2y2   :     0.000000
      dxy     :     0.000000
  2 O s       :     0.000000  s :     0.000000
      pz      :     0.000000  p :     0.000000
      px      :     0.000000
      py      :     0.000000
      dz2     :     0.000000  d :     0.000000
      dxz     :     0.000000
      dyz     :     0.000000
      dx2y2   :     0.000000
      dxy     :     0.000000
  3 H s       :     0.000000  s :     0.000000
  4 H s       :     0.000000  s :     0.000000


                      *****************************
                      * MAYER POPULATION ANALYSIS *
                      *****************************

  NA   - Mulliken gross atomic population
  ZA   - Total nuclear charge
  QA   - Mulliken gross atomic charge
  VA   - Mayer's total valence
  BVA  - Mayer's bonded valence
  FA   - Mayer's free valence

  ATOM       NA         ZA         QA         VA         BVA        FA
  0 C      5.7357     6.0000     0.2643     4.3506     4.3506     0.0000
  1 O      8.1334     8.0000    -0.1334     2.4401     2.4401     0.0000
  2 O      8.1322     8.0000    -0.1322     2.4423     2.4423    -0.0000
  3 H      1.0006     1.0000    -0.0006     1.0015     1.0015    -0.0000
  4 H      0.9981     1.0000     0.0019     1.0034     1.0034     0.0000

  Mayer bond orders larger than 0.1
B(  0-C ,  1-O ) :   2.1666 B(  0-C ,  2-O ) :   2.1704 B(  1-O ,  2-O ) :   0.2688 
B(  3-H ,  4-H ) :   0.9918 

-------
TIMINGS
-------

Total SCF time: 0 days 0 hours 0 min 1 sec 

Total time                  ....       1.718 sec
Sum of individual times     ....       1.486 sec  ( 86.5%)

Fock matrix formation       ....       1.283 sec  ( 74.7%)
  XC integration            ....       0.258 sec  ( 20.1% of F)
    Basis function eval.    ....       0.082 sec  ( 31.9% of XC)
    Density eval.           ....       0.059 sec  ( 22.8% of XC)
    XC-Functional eval.     ....       0.043 sec  ( 16.8% of XC)
    XC-Potential eval.      ....       0.060 sec  ( 23.3% of XC)
Diagonalization             ....       0.000 sec  (  0.0%)
Density matrix formation    ....       0.000 sec  (  0.0%)
Population analysis         ....       0.001 sec  (  0.1%)
Initial guess               ....       0.001 sec  (  0.1%)
Orbital Transformation      ....       0.000 sec  (  0.0%)
Orbital Orthonormalization  ....       0.001 sec  (  0.0%)
DIIS solution               ....       0.000 sec  (  0.0%)
SOSCF solution              ....       0.002 sec  (  0.1%)
Grid generation             ....       0.198 sec  ( 11.5%)

-------------------------   --------------------
FINAL SINGLE POINT ENERGY      -189.525059479846
-------------------------   --------------------

                                *** OPTIMIZATION RUN DONE ***

                            ***************************************
                            *     ORCA property calculations      *
                            ***************************************

                                    ---------------------
                                    Active property flags
                                    ---------------------
   (+) Dipole Moment


------------------------------------------------------------------------------
                       ORCA ELECTRIC PROPERTIES CALCULATION
------------------------------------------------------------------------------

Dipole Moment Calculation                       ... on
Quadrupole Moment Calculation                   ... off
Polarizability Calculation                      ... off
GBWName                                         ... input.gbw
Electron density file                           ... input.scfp.tmp
The origin for moment calculation is the CENTER OF MASS  = (-0.176387,  0.902946 -0.183753)

-------------
DIPOLE MOMENT
-------------
                                X             Y             Z
Electronic contribution:     -0.17060       5.40744      -1.04075
Nuclear contribution   :      0.17150      -5.41889       1.04303
                        -----------------------------------------
Total Dipole Moment    :      0.00090      -0.01145       0.00228
                        -----------------------------------------
Magnitude (a.u.)       :      0.01171
Magnitude (Debye)      :      0.02977



--------------------
Rotational spectrum 
--------------------
 
Rotational constants in cm-1:     0.923892     0.386378     0.272441 
Rotational constants in MHz : 27697.574674 11583.332573  8167.586810 

 Dipole components along the rotational axes: 
x,y,z [a.u.] :    -0.000152    -0.011710     0.000042 
x,y,z [Debye]:    -0.000386    -0.029764     0.000107 

 

Timings for individual modules:

Sum of individual times         ...       84.210 sec (=   1.403 min)
GTO integral calculation        ...        7.619 sec (=   0.127 min)   9.0 %
SCF iterations                  ...       57.150 sec (=   0.953 min)  67.9 %
SCF Gradient evaluation         ...       17.913 sec (=   0.299 min)  21.3 %
Geometry relaxation             ...        1.527 sec (=   0.025 min)   1.8 %
                             ****ORCA TERMINATED NORMALLY****
TOTAL RUN TIME: 0 days 0 hours 1 minutes 25 seconds 374 msec
