
Host: localhost.localdomain

Timers On : Mon Jan 21 08:56:08 2019
Timers Off: Mon Jan 21 09:26:41 2019

Wall Time:     1832.70 seconds

V: Grid                     :    193.883u      2.183s    111.027w    222 calls
DFH: initialize()           :  10383.100u    485.950s    197.394w    222 calls
DFH: sparsity prep          :    913.017u     71.667s     14.779w    222 calls
DFH: AO Construction        :   3463.850u     31.883s     52.452w    222 calls
DFH: AO-Met. Contraction    :    733.100u     51.817s     11.781w    222 calls
HF: Form H                  :    177.600u     14.133s      2.943w    222 calls
HF: Form S/X                :     84.533u      5.817s      1.355w    222 calls
HF: Guess                   :   9933.217u    716.083s    203.652w    222 calls
SAD Guess                   :   9883.050u    712.083s    202.840w    222 calls
HF: Form G                  :  68177.733u    327.217s   1027.982w   2460 calls
RV: Form V                  :  66249.333u    190.000s    997.009w   2460 calls
Properties                  :  30855.712p                         5520213 calls
Functional                  :    962.470p                         5520213 calls
V_xc                        :   7240.684p                         5520213 calls
JK: D                       :     17.317u      1.150s      0.269w   2460 calls
JK: USO2AO                  :     16.133u      1.467s      0.269w   2460 calls
JK: JK                      :   1810.700u    127.033s     29.082w   2460 calls
DFH: compute_JK()           :   1802.250u    126.300s     28.939w   2460 calls
DFH: Grabbing AOs           :      4.717u      0.217s      0.066w   2460 calls
DFH: compute_J              :    655.117u      6.150s      9.965w   2460 calls
DFH: compute_K              :   1053.383u    113.567s     17.518w   2460 calls
JK: AO2USO                  :      4.567u      0.350s      0.067w   2460 calls
HF: Form F                  :     27.717u      2.667s      0.459w   2460 calls
HF: DIIS                    :    586.817u     53.250s      9.685w   2460 calls
DIISManager::add_entry      :    266.933u     24.383s      4.452w   2238 calls
DIISManager::extrapolate    :    199.917u     19.983s      3.301w   2016 calls
bMatrix setup               :     87.100u      9.283s      1.451w   2016 calls
bMatrix pseudoinverse       :     13.383u      1.367s      0.223w   2016 calls
New vector                  :     84.900u      8.083s      1.402w   2016 calls
HF: Form C                  :    940.167u     64.367s     15.085w   2460 calls
HF: Form D                  :      8.617u      0.517s      0.140w   2460 calls

-----------------------------------------------------------
V: Grid                     :    193.883u      2.183s    111.027w    222 calls
DFH: initialize()           :  10383.100u    485.950s    197.394w    222 calls
| DFH: sparsity prep        :    913.017u     71.667s     14.779w    222 calls
| DFH: AO Construction      :   3463.850u     31.883s     52.452w    222 calls
| DFH: AO-Met. Contraction  :    733.100u     51.817s     11.781w    222 calls
HF: Form H                  :    177.600u     14.133s      2.943w    222 calls
HF: Form S/X                :     84.533u      5.817s      1.355w    222 calls
HF: Guess                   :   9933.217u    716.083s    203.652w    222 calls
| SAD Guess                 :   9883.050u    712.083s    202.840w    222 calls
HF: Form G                  :  68177.733u    327.217s   1027.982w   2460 calls
| RV: Form V                :  66249.333u    190.000s    997.009w   2460 calls
| | Properties              :  30855.712p                         5520213 calls
| | Functional              :    962.470p                         5520213 calls
| | V_xc                    :   7240.684p                         5520213 calls
| JK: D                     :     17.317u      1.150s      0.269w   2460 calls
| JK: USO2AO                :     16.133u      1.467s      0.269w   2460 calls
| JK: JK                    :   1810.700u    127.033s     29.082w   2460 calls
| | DFH: compute_JK()       :   1802.250u    126.300s     28.939w   2460 calls
| | | DFH: Grabbing AOs     :      4.717u      0.217s      0.066w   2460 calls
| | | DFH: compute_J        :    655.117u      6.150s      9.965w   2460 calls
| | | DFH: compute_K        :   1053.383u    113.567s     17.518w   2460 calls
| JK: AO2USO                :      4.567u      0.350s      0.067w   2460 calls
HF: Form F                  :     27.717u      2.667s      0.459w   2460 calls
HF: DIIS                    :    586.817u     53.250s      9.685w   2460 calls
| DIISManager::add_entry    :    266.933u     24.383s      4.452w   2238 calls
| DIISManager::extrapolate  :    199.917u     19.983s      3.301w   2016 calls
| | bMatrix setup           :     87.100u      9.283s      1.451w   2016 calls
| | bMatrix pseudoinverse   :     13.383u      1.367s      0.223w   2016 calls
| | New vector              :     84.900u      8.083s      1.402w   2016 calls
HF: Form C                  :    940.167u     64.367s     15.085w   2460 calls
HF: Form D                  :      8.617u      0.517s      0.140w   2460 calls

***********************************************************

Host: localhost.localdomain

Timers On : Mon Jan 21 09:28:27 2019
Timers Off: Mon Jan 21 09:28:28 2019

Wall Time:        1.32 seconds


-----------------------------------------------------------

***********************************************************

Host: localhost.localdomain

Timers On : Mon Jan 21 09:30:17 2019
Timers Off: Mon Jan 21 09:30:18 2019

Wall Time:        1.19 seconds


-----------------------------------------------------------

***********************************************************

Host: localhost.localdomain

Timers On : Mon Jan 21 09:30:56 2019
Timers Off: Mon Jan 21 09:30:57 2019

Wall Time:        1.38 seconds


-----------------------------------------------------------

***********************************************************

Host: localhost.localdomain

Timers On : Mon Jan 21 09:32:14 2019
Timers Off: Mon Jan 21 09:32:15 2019

Wall Time:        1.07 seconds


-----------------------------------------------------------

***********************************************************

Host: localhost.localdomain

Timers On : Mon Jan 21 09:32:32 2019
Timers Off: Mon Jan 21 09:32:33 2019

Wall Time:        1.16 seconds


-----------------------------------------------------------

***********************************************************

Host: localhost.localdomain

Timers On : Mon Jan 21 09:32:50 2019
Timers Off: Mon Jan 21 09:32:52 2019

Wall Time:        1.48 seconds


-----------------------------------------------------------

***********************************************************

Host: localhost.localdomain

Timers On : Mon Jan 21 09:33:58 2019
Timers Off: Mon Jan 21 09:33:59 2019

Wall Time:        1.14 seconds


-----------------------------------------------------------

***********************************************************

Host: localhost.localdomain

Timers On : Mon Jan 21 09:34:15 2019
Timers Off: Mon Jan 21 09:34:17 2019

Wall Time:        1.47 seconds


-----------------------------------------------------------

***********************************************************

Host: localhost.localdomain

Timers On : Mon Jan 21 09:35:17 2019
Timers Off: Mon Jan 21 09:35:19 2019

Wall Time:        1.32 seconds


-----------------------------------------------------------

***********************************************************

Host: localhost.localdomain

Timers On : Mon Jan 21 09:36:13 2019
Timers Off: Mon Jan 21 09:36:15 2019

Wall Time:        1.45 seconds


-----------------------------------------------------------

***********************************************************
