
    -----------------------------------------------------------------------
          Psi4: An Open-Source Ab Initio Electronic Structure Package
                               Psi4 1.2.1 release

                         Git: Rev {HEAD} 406f4de 


    R. M. Parrish, L. A. Burns, D. G. A. Smith, A. C. Simmonett,
    A. E. DePrince III, E. G. Hohenstein, U. Bozkaya, A. Yu. Sokolov,
    R. Di Remigio, R. M. Richard, J. F. Gonthier, A. M. James,
    H. R. McAlexander, A. Kumar, M. Saitow, X. Wang, B. P. Pritchard,
    P. Verma, H. F. Schaefer III, K. Patkowski, R. A. King, E. F. Valeev,
    F. A. Evangelista, J. M. Turney, T. D. Crawford, and C. D. Sherrill,
    J. Chem. Theory Comput. 13(7) pp 3185--3197 (2017).
    (doi: 10.1021/acs.jctc.7b00174)


                         Additional Contributions by
    P. Kraus, H. Kruse, M. H. Lechner, M. C. Schieber, and R. A. Shaw

    -----------------------------------------------------------------------


    Psi4 started on: Tuesday, 15 January 2019 08:48AM

    Process ID: 30981
    Host:       localhost.localdomain
    PSIDATADIR: /root/psi4conda/share/psi4
    Memory:     500.0 MiB
    Threads:    1
    
  ==> Input File <==

--------------------------------------------------------------------------
molecule{
0 1
C   0.3824750053   1.1006329659  -0.1401508143  
O  -0.6428047629   1.9669889733  -0.8917598196  
C  -2.1492976296   1.0025428673   0.4234619140  
H  -2.7317450651   1.1050231186   1.3328873704  
N  -1.6965026004   2.1195748200  -0.0660923197  
O  -0.1011873674   0.6027601730   0.9018126282   
N   1.4607640249   1.0876556520  -0.7868265270  
C  -1.6481627756   3.3494283343   0.7089169564  
H  -1.5941820419   4.1830556385   0.0157617277  
H  -2.5466944109   3.4262911772   1.3153514685  
H  -0.7570232406   3.3276487997   1.3373885599  
C   2.5215276858   0.2751737951  -0.2158712284  
H   3.0454393869  -0.2413919177  -1.0199725255  
H   3.2528751766   0.9103219959   0.2896704078  
H   2.1570931806  -0.4628309039   0.5041217229  
C  -2.2686668560  -0.2536170152  -0.3521129207  
H  -2.0281237045  -1.0944189911   0.2932404368  
H  -3.3074397081  -0.3529036594  -0.6785083277   
H  -1.6106314270  -0.2518920937  -1.2149668798  
}

set{
   basis 6-31+G(d)
   freeze_core True
   opt_type ts
}

optimize('mp2')
--------------------------------------------------------------------------
gradient() will perform analytic gradient computation.

*** tstart() called on localhost.localdomain
*** at Tue Jan 15 08:48:04 2019

    SCF Algorithm Type (re)set to DF.

*** tstart() called on localhost.localdomain
*** at Tue Jan 15 08:48:04 2019

   => Loading Basis Set <=

    Name: 6-31+G(D)
    Role: ORBITAL
    Keyword: BASIS
    atoms 1, 3, 8, 12, 16       entry C          line   119 file /root/psi4conda/share/psi4/basis/6-31pg_d_.gbs 
    atoms 2, 6                  entry O          line   157 file /root/psi4conda/share/psi4/basis/6-31pg_d_.gbs 
    atoms 4, 9-11, 13-15, 17-19 entry H          line    46 file /root/psi4conda/share/psi4/basis/6-31pg_d_.gbs 
    atoms 5, 7                  entry N          line   138 file /root/psi4conda/share/psi4/basis/6-31pg_d_.gbs 


         ---------------------------------------------------------
                                   SCF
            by Justin Turney, Rob Parrish, Andy Simmonett
                             and Daniel Smith
                              RHF Reference
                        1 Threads,    500 MiB Core
         ---------------------------------------------------------

  ==> Geometry <==

    Molecular point group: c1
    Full point group: C1

    Geometry (in Angstrom), charge = 0, multiplicity = 1:

       Center              X                  Y                   Z               Mass       
    ------------   -----------------  -----------------  -----------------  -----------------
         C            0.838483668195    -0.147388159503    -0.105556937302    12.000000000000
         O           -0.186796100005     0.718967847897    -0.857165942602    15.994914619560
         C           -1.693288966705    -0.245478258103     0.458055790998    12.000000000000
         H           -2.275736402205    -0.142998006803     1.367481247398     1.007825032070
         N           -1.240493937505     0.871553694597    -0.031498442702    14.003074004780
         O            0.354821295495    -0.645260952403     0.936406505198    15.994914619560
         N            1.916772687795    -0.160365473403    -0.752232650002    14.003074004780
         C           -1.192154112705     2.101407208897     0.743510833398    12.000000000000
         H           -1.138173379005     2.935034513097     0.050355604698     1.007825032070
         H           -2.090685748005     2.178270051797     1.349945345498     1.007825032070
         H           -0.301014577705     2.079627674297     1.371982436898     1.007825032070
         C            2.977536348695    -0.972847330303    -0.181277351402    12.000000000000
         H            3.501448049795    -1.489413043103    -0.985378648502     1.007825032070
         H            3.708883839495    -0.337699129503     0.324264284798     1.007825032070
         H            2.613101843495    -1.710852029303     0.538715599898     1.007825032070
         C           -1.812658193105    -1.501638140603    -0.317519043702    12.000000000000
         H           -1.572115041605    -2.342440116503     0.327834313798     1.007825032070
         H           -2.851431045205    -1.600924784803    -0.643914450702     1.007825032070
         H           -1.154622764105    -1.499913219103    -1.180373002802     1.007825032070

  Running in c1 symmetry.

  Rotational constants: A =      0.09325  B =      0.04109  C =      0.03408 [cm^-1]
  Rotational constants: A =   2795.54966  B =   1231.94667  C =   1021.78125 [MHz]
  Nuclear repulsion =  488.378984055174215

  Charge       = 0
  Multiplicity = 1
  Electrons    = 70
  Nalpha       = 35
  Nbeta        = 35

  ==> Algorithm <==

  SCF Algorithm Type is DF.
  DIIS enabled.
  MOM disabled.
  Fractional occupation disabled.
  Guess Type is SAD.
  Energy threshold   = 1.00e-10
  Density threshold  = 1.00e-10
  Integral threshold = 0.00e+00

  ==> Primary Basis <==

  Basis Set: 6-31+G(D)
    Blend: 6-31+G(D)
    Number of shells: 92
    Number of basis function: 191
    Number of Cartesian functions: 191
    Spherical Harmonics?: false
    Max angular momentum: 2

   => Loading Basis Set <=

    Name: (6-31+G(D) AUX)
    Role: JKFIT
    Keyword: DF_BASIS_SCF
    atoms 1, 3, 8, 12, 16       entry C          line   194 file /root/psi4conda/share/psi4/basis/heavy-aug-cc-pvdz-jkfit.gbs 
    atoms 2, 6                  entry O          line   310 file /root/psi4conda/share/psi4/basis/heavy-aug-cc-pvdz-jkfit.gbs 
    atoms 4, 9-11, 13-15, 17-19 entry H          line   116 file /root/psi4conda/share/psi4/basis/heavy-aug-cc-pvdz-jkfit.gbs 
    atoms 5, 7                  entry N          line   252 file /root/psi4conda/share/psi4/basis/heavy-aug-cc-pvdz-jkfit.gbs 

  ==> Pre-Iterations <==

   -------------------------------------------------------
    Irrep   Nso     Nmo     Nalpha   Nbeta   Ndocc  Nsocc
   -------------------------------------------------------
     A        191     191       0       0       0       0
   -------------------------------------------------------
    Total     191     191      35      35      35       0
   -------------------------------------------------------

  ==> Integral Setup <==

  ==> DiskDFJK: Density-Fitted J/K Matrices <==

    J tasked:                  Yes
    K tasked:                  Yes
    wK tasked:                  No
    OpenMP threads:              1
    Integrals threads:           1
    Memory (MB):               375
    Algorithm:                Core
    Integral Cache:           NONE
    Schwarz Cutoff:          1E-12
    Fitting Condition:       1E-12

   => Auxiliary Basis Set <=

  Basis Set: (6-31+G(D) AUX)
    Blend: HEAVY-AUG-CC-PVDZ-JKFIT
    Number of shells: 342
    Number of basis function: 1159
    Number of Cartesian functions: 1159
    Spherical Harmonics?: false
    Max angular momentum: 3

  Minimum eigenvalue in the overlap matrix is 5.6855099027E-05.
  Using Symmetric Orthogonalization.

  SCF Guess: Superposition of Atomic Densities via on-the-fly atomic UHF.

  ==> Iterations <==

                           Total Energy        Delta E     RMS |[F,P]|

   @DF-RHF iter   0:  -457.11558174133813   -4.57116e+02   2.90986e-02 
   @DF-RHF iter   1:  -453.40798226364240    3.70760e+00   3.15116e-03 
   @DF-RHF iter   2:  -453.60847050573460   -2.00488e-01   1.62663e-03 DIIS
   @DF-RHF iter   3:  -453.65065476144832   -4.21843e-02   5.73544e-04 DIIS
   @DF-RHF iter   4:  -453.66026562437355   -9.61086e-03   1.85436e-04 DIIS
   @DF-RHF iter   5:  -453.66143307748104   -1.16745e-03   8.54792e-05 DIIS
   @DF-RHF iter   6:  -453.66169249718337   -2.59420e-04   2.63276e-05 DIIS
   @DF-RHF iter   7:  -453.66173127557585   -3.87784e-05   1.03282e-05 DIIS
   @DF-RHF iter   8:  -453.66173495932333   -3.68375e-06   3.12410e-06 DIIS
   @DF-RHF iter   9:  -453.66173547016751   -5.10844e-07   1.27802e-06 DIIS
   @DF-RHF iter  10:  -453.66173554002484   -6.98573e-08   4.43939e-07 DIIS
   @DF-RHF iter  11:  -453.66173555331926   -1.32944e-08   1.49938e-07 DIIS
   @DF-RHF iter  12:  -453.66173555488865   -1.56939e-09   6.05348e-08 DIIS
   @DF-RHF iter  13:  -453.66173555508260   -1.93950e-10   2.28826e-08 DIIS
   @DF-RHF iter  14:  -453.66173555511625   -3.36513e-11   9.20874e-09 DIIS
   @DF-RHF iter  15:  -453.66173555511966   -3.41061e-12   3.51391e-09 DIIS
   @DF-RHF iter  16:  -453.66173555511944    2.27374e-13   1.18806e-09 DIIS
   @DF-RHF iter  17:  -453.66173555512194   -2.50111e-12   4.78020e-10 DIIS
   @DF-RHF iter  18:  -453.66173555511909    2.84217e-12   1.70130e-10 DIIS
   @DF-RHF iter  19:  -453.66173555512103   -1.93268e-12   9.03020e-11 DIIS

  ==> Post-Iterations <==

    Orbital Energies [Eh]
    ---------------------

    Doubly Occupied:                                                      

       1A    -20.626353     2A    -20.533106     3A    -15.702099  
       4A    -15.503772     5A    -11.387258     6A    -11.356396  
       7A    -11.296146     8A    -11.265800     9A    -11.214663  
      10A     -1.502713    11A     -1.354844    12A     -1.237719  
      13A     -1.168006    14A     -1.082381    15A     -0.981744  
      16A     -0.917867    17A     -0.842527    18A     -0.768704  
      19A     -0.735923    20A     -0.704845    21A     -0.678136  
      22A     -0.634124    23A     -0.621846    24A     -0.616501  
      25A     -0.595458    26A     -0.591335    27A     -0.578516  
      28A     -0.570884    29A     -0.536685    30A     -0.528403  
      31A     -0.493469    32A     -0.453452    33A     -0.439061  
      34A     -0.375680    35A     -0.332570  

    Virtual:                                                              

      36A      0.049240    37A      0.070260    38A      0.073585  
      39A      0.080907    40A      0.096457    41A      0.104754  
      42A      0.112712    43A      0.116869    44A      0.120166  
      45A      0.131346    46A      0.139855    47A      0.145472  
      48A      0.156906    49A      0.158344    50A      0.169814  
      51A      0.182152    52A      0.198111    53A      0.214084  
      54A      0.222004    55A      0.232728    56A      0.250692  
      57A      0.257746    58A      0.274498    59A      0.278420  
      60A      0.284991    61A      0.305459    62A      0.313892  
      63A      0.319268    64A      0.339735    65A      0.348596  
      66A      0.358267    67A      0.363222    68A      0.368932  
      69A      0.378437    70A      0.389787    71A      0.393812  
      72A      0.405785    73A      0.409469    74A      0.418596  
      75A      0.428441    76A      0.436310    77A      0.448549  
      78A      0.450990    79A      0.467619    80A      0.476937  
      81A      0.480178    82A      0.496140    83A      0.513971  
      84A      0.535216    85A      0.541067    86A      0.567356  
      87A      0.587303    88A      0.603390    89A      0.607180  
      90A      0.681286    91A      0.818192    92A      0.836374  
      93A      0.862699    94A      0.896842    95A      0.911141  
      96A      0.930113    97A      0.947385    98A      0.966053  
      99A      0.982461   100A      0.989266   101A      0.994119  
     102A      1.026589   103A      1.047426   104A      1.058674  
     105A      1.101638   106A      1.121172   107A      1.157520  
     108A      1.184906   109A      1.196380   110A      1.210734  
     111A      1.234775   112A      1.247723   113A      1.266521  
     114A      1.282846   115A      1.294121   116A      1.303953  
     117A      1.334229   118A      1.345659   119A      1.353280  
     120A      1.363555   121A      1.383846   122A      1.408513  
     123A      1.446759   124A      1.449996   125A      1.480421  
     126A      1.508931   127A      1.550717   128A      1.580130  
     129A      1.599818   130A      1.665349   131A      1.673845  
     132A      1.682771   133A      1.703140   134A      1.732219  
     135A      1.744621   136A      1.797258   137A      1.823412  
     138A      1.840798   139A      1.866789   140A      1.897676  
     141A      1.934596   142A      1.961899   143A      2.030131  
     144A      2.077895   145A      2.096364   146A      2.152356  
     147A      2.168308   148A      2.204173   149A      2.245746  
     150A      2.275679   151A      2.315797   152A      2.335290  
     153A      2.367521   154A      2.380308   155A      2.412602  
     156A      2.475552   157A      2.501247   158A      2.518620  
     159A      2.546919   160A      2.551521   161A      2.567343  
     162A      2.589825   163A      2.600666   164A      2.650904  
     165A      2.672437   166A      2.711510   167A      2.725961  
     168A      2.771038   169A      2.801084   170A      2.821331  
     171A      2.913542   172A      2.961868   173A      3.071455  
     174A      3.128913   175A      3.152700   176A      3.193841  
     177A      3.226507   178A      3.291933   179A      3.370405  
     180A      3.448925   181A      3.558987   182A      3.703341  
     183A      4.566230   184A      4.684366   185A      4.711755  
     186A      4.795984   187A      4.813296   188A      4.885229  
     189A      4.923405   190A      4.966160   191A      5.134510  

    Final Occupation by Irrep:
              A 
    DOCC [    35 ]

  Energy converged.

  @DF-RHF Final Energy:  -453.66173555512103

   => Energetics <=

    Nuclear Repulsion Energy =            488.3789840551742145
    One-Electron Energy =               -1587.6234647496664820
    Two-Electron Energy =                 645.5827451393712408
    Total Energy =                       -453.6617355551210267



Properties will be evaluated at   0.000000,   0.000000,   0.000000 [a0]

Properties computed using the SCF density matrix

  Nuclear Dipole Moment: [e a0]
     X:    -1.4639      Y:    -1.8123      Z:     2.3659

  Electronic Dipole Moment: [e a0]
     X:    -1.1400      Y:     1.9976      Z:    -1.3519

  Dipole Moment: [e a0]
     X:    -2.6039      Y:     0.1853      Z:     1.0140     Total:     2.8005

  Dipole Moment: [D]
     X:    -6.6185      Y:     0.4710      Z:     2.5773     Total:     7.1182


*** tstop() called on localhost.localdomain at Tue Jan 15 08:48:20 2019
Module time:
	user time   =      14.82 seconds =       0.25 minutes
	system time =       0.44 seconds =       0.01 minutes
	total time  =         16 seconds =       0.27 minutes
Total time:
	user time   =      14.82 seconds =       0.25 minutes
	system time =       0.44 seconds =       0.01 minutes
	total time  =         16 seconds =       0.27 minutes

  //>>>>>>>>>>>>>>>>>>>>>>>>>>>>>>>>>>>//
  //               DFMP2               //
  //<<<<<<<<<<<<<<<<<<<<<<<<<<<<<<<<<<<//

   => Loading Basis Set <=

    Name: (6-31+G(D) AUX)
    Role: RIFIT
    Keyword: DF_BASIS_MP2
    atoms 1, 3, 8, 12, 16       entry C          line   116 file /root/psi4conda/share/psi4/basis/heavy-aug-cc-pvdz-ri.gbs 
    atoms 2, 6                  entry O          line   208 file /root/psi4conda/share/psi4/basis/heavy-aug-cc-pvdz-ri.gbs 
    atoms 4, 9-11, 13-15, 17-19 entry H          line    44 file /root/psi4conda/share/psi4/basis/heavy-aug-cc-pvdz-ri.gbs 
    atoms 5, 7                  entry N          line   162 file /root/psi4conda/share/psi4/basis/heavy-aug-cc-pvdz-ri.gbs 

	 --------------------------------------------------------
	                          DF-MP2                         
	      2nd-Order Density-Fitted Moller-Plesset Theory     
	              RMP2 Wavefunction,   1 Threads             
	                                                         
	        Rob Parrish, Justin Turney, Andy Simmonett,      
	           Ed Hohenstein, and C. David Sherrill          
	 --------------------------------------------------------

   => Auxiliary Basis Set <=

  Basis Set: (6-31+G(D) AUX)
    Blend: HEAVY-AUG-CC-PVDZ-RI
    Number of shells: 258
    Number of basis function: 788
    Number of Cartesian functions: 924
    Spherical Harmonics?: true
    Max angular momentum: 3

	 --------------------------------------------------------
	                 NBF =   191, NAUX =   788
	 --------------------------------------------------------
	   CLASS    FOCC     OCC    AOCC    AVIR     VIR    FVIR
	   PAIRS       9      35      26     156     156       0
	 --------------------------------------------------------


         ------------------------------------------------------------
                                     CPHF                           
                                  Rob Parrish                       
         ------------------------------------------------------------

  ==> Geometry <==

    Molecular point group: c1
    Full point group: C1

    Geometry (in Angstrom), charge = 0, multiplicity = 1:

       Center              X                  Y                   Z               Mass       
    ------------   -----------------  -----------------  -----------------  -----------------
         C            0.838483668195    -0.147388159503    -0.105556937302    12.000000000000
         O           -0.186796100005     0.718967847897    -0.857165942602    15.994914619560
         C           -1.693288966705    -0.245478258103     0.458055790998    12.000000000000
         H           -2.275736402205    -0.142998006803     1.367481247398     1.007825032070
         N           -1.240493937505     0.871553694597    -0.031498442702    14.003074004780
         O            0.354821295495    -0.645260952403     0.936406505198    15.994914619560
         N            1.916772687795    -0.160365473403    -0.752232650002    14.003074004780
         C           -1.192154112705     2.101407208897     0.743510833398    12.000000000000
         H           -1.138173379005     2.935034513097     0.050355604698     1.007825032070
         H           -2.090685748005     2.178270051797     1.349945345498     1.007825032070
         H           -0.301014577705     2.079627674297     1.371982436898     1.007825032070
         C            2.977536348695    -0.972847330303    -0.181277351402    12.000000000000
         H            3.501448049795    -1.489413043103    -0.985378648502     1.007825032070
         H            3.708883839495    -0.337699129503     0.324264284798     1.007825032070
         H            2.613101843495    -1.710852029303     0.538715599898     1.007825032070
         C           -1.812658193105    -1.501638140603    -0.317519043702    12.000000000000
         H           -1.572115041605    -2.342440116503     0.327834313798     1.007825032070
         H           -2.851431045205    -1.600924784803    -0.643914450702     1.007825032070
         H           -1.154622764105    -1.499913219103    -1.180373002802     1.007825032070

  Nuclear repulsion =  488.378984055174215
  Reference energy  = -453.661735555121027

  ==> Basis Set <==

  Basis Set: 6-31+G(D)
    Blend: 6-31+G(D)
    Number of shells: 92
    Number of basis function: 191
    Number of Cartesian functions: 191
    Spherical Harmonics?: false
    Max angular momentum: 2

  ==> CGRSolver (by Rob Parrish) <==

   Number of roots    =         1
   Preconditioning    =    JACOBI
   Convergence cutoff =     1E-06
   Maximum iterations =       100

  ==> CPHFRHamiltonian (by Rob Parrish) <== 

  ==> DiskDFJK: Density-Fitted J/K Matrices <==

    J tasked:                  Yes
    K tasked:                  Yes
    wK tasked:                  No
    OpenMP threads:              1
    Integrals threads:           1
    Memory (MB):               375
    Algorithm:                Core
    Integral Cache:           NONE
    Schwarz Cutoff:          1E-12
    Fitting Condition:       1E-12

   => Auxiliary Basis Set <=

  Basis Set: (6-31+G(D) AUX)
    Blend: HEAVY-AUG-CC-PVDZ-JKFIT
    Number of shells: 342
    Number of basis function: 1159
    Number of Cartesian functions: 1159
    Spherical Harmonics?: false
    Max angular momentum: 3

  ==> CPHF Iterations <==

  => Iterations <=

             Iter  Converged  Remaining    Residual
  CGR           1          0          1   1.747E-01
  CGR           2          0          1   4.724E-02
  CGR           3          0          1   2.536E-02
  CGR           4          0          1   7.214E-03
  CGR           5          0          1   3.082E-03
  CGR           6          0          1   8.936E-04
  CGR           7          0          1   4.090E-04
  CGR           8          0          1   1.428E-04
  CGR           9          0          1   5.102E-05
  CGR          10          0          1   1.790E-05
  CGR          11          0          1   5.700E-06
  CGR          12          0          1   1.709E-06
  CGR          13          1          0   5.536E-07

    CGRSolver converged.

  ==> DFCorrGrad: Density-Fitted Correlated Gradients <==

    OpenMP threads:              1
    Integrals threads:           1
    Memory (MB):               375
    Schwarz Cutoff:          0E+00
    Fitting Condition:       1E-12

   => Auxiliary Basis Set <=

  Basis Set: (6-31+G(D) AUX)
    Blend: HEAVY-AUG-CC-PVDZ-JKFIT
    Number of shells: 342
    Number of basis function: 1159
    Number of Cartesian functions: 1159
    Spherical Harmonics?: false
    Max angular momentum: 3

	-----------------------------------------------------------
	 ==================> DF-MP2 Energies <==================== 
	-----------------------------------------------------------
	 Reference Energy          =    -453.6617355551210267 [Eh]
	 Singles Energy            =      -0.0000000000000001 [Eh]
	 Same-Spin Energy          =      -0.3592700068272059 [Eh]
	 Opposite-Spin Energy      =      -0.9961568732017925 [Eh]
	 Correlation Energy        =      -1.3554268800289984 [Eh]
	 Total Energy              =    -455.0171624351499986 [Eh]
	-----------------------------------------------------------
	 ================> DF-SCS-MP2 Energies <================== 
	-----------------------------------------------------------
	 SCS Same-Spin Scale       =       0.3333333333333333 [-]
	 SCS Opposite-Spin Scale   =       1.2000000000000000 [-]
	 SCS Same-Spin Energy      =      -0.1197566689424020 [Eh]
	 SCS Opposite-Spin Energy  =      -1.1953882478421509 [Eh]
	 SCS Correlation Energy    =      -1.3151449167845528 [Eh]
	 SCS Total Energy          =    -454.9768804719055879 [Eh]
	-----------------------------------------------------------


  -Total Gradient:
     Atom            X                  Y                   Z
    ------   -----------------  -----------------  -----------------
       1        0.007025054223    -0.000946950089    -0.003489691186
       2       -0.001752230253    -0.007564367946     0.018565252386
       3        0.003660863187     0.008846877724    -0.003627047860
       4        0.002820745330    -0.000543653062    -0.002244095020
       5        0.004003065292    -0.008123354973    -0.003372493549
       6        0.007033280998     0.011359095724    -0.022610349603
       7       -0.020242401686    -0.004216704455     0.018610476715
       8       -0.000527402973    -0.003221730269    -0.001661419813
       9       -0.000133725559    -0.001833230628     0.002434994251
      10        0.002759685204     0.000161598582    -0.001464760332
      11       -0.002093567262     0.000221354216    -0.001148783865
      12       -0.002868048372     0.001666626578    -0.001424005149
      13       -0.000686935522     0.001008558026     0.002575333556
      14       -0.001367882553    -0.002149229777    -0.001345125500
      15        0.001517579019     0.002236414077    -0.001989348995
      16        0.000177247459    -0.001255513473    -0.000255164914
      17       -0.000716737421     0.002887041443    -0.001743508367
      18        0.002983335828     0.000809424474     0.001525985709
      19       -0.001591924939     0.000657743839     0.002663751535


*** tstop() called on localhost.localdomain at Tue Jan 15 08:49:02 2019
Module time:
	user time   =      55.89 seconds =       0.93 minutes
	system time =       2.09 seconds =       0.03 minutes
	total time  =         58 seconds =       0.97 minutes
Total time:
	user time   =      55.89 seconds =       0.93 minutes
	system time =       2.09 seconds =       0.03 minutes
	total time  =         58 seconds =       0.97 minutes

			-----------------------------------------
			 OPTKING 2.0: for geometry optimizations 
			  - R.A. King,  Bethel University        
			-----------------------------------------

	Internal coordinates to be generated automatically.
	Detected frag 1 with atoms:  1 2 3 4 5 6 7 8 9 10 11 12 13 14 15 16 17 18 19
	---Fragment 1 Bond Connectivity---
	 1 : 2 6 7
	 2 : 1 5
	 3 : 4 5 16
	 4 : 3
	 5 : 2 3 8
	 6 : 1
	 7 : 1 12
	 8 : 5 9 10 11
	 9 : 8
	 10 : 8
	 11 : 8
	 12 : 7 13 14 15
	 13 : 12
	 14 : 12
	 15 : 12
	 16 : 3 17 18 19
	 17 : 16
	 18 : 16
	 19 : 16

	---Fragment 1 Geometry and Gradient---
	 C           1.5845044998       -0.2785232567       -0.1994737029
	 O          -0.3529934717        1.3586523309       -1.6198088820
	 C          -3.1998524109       -0.4638866794        0.8655999986
	 H          -4.3005185508       -0.2702270704        2.5841650494
	 N          -2.3441938114        1.6469977929       -0.0595234303
	 O           0.6705150746       -1.2193664843        1.7695518439
	 N           3.6221754389       -0.3030468259       -1.4215136967
	 C          -2.2528447812        3.9710841185        1.4050318520
	 H          -2.1508359781        5.5464114203        0.0951583021
	 H          -3.9508234937        4.1163338414        2.5510269974
	 H          -0.5688351139        3.9299267628        2.5926710649
	 C           5.6267282497       -1.8384150234       -0.3425645482
	 H           6.6167778826       -2.8145827502       -1.8620957829
	 H           7.0087747153       -0.6381588701        0.6127706929
	 H           4.9380468415       -3.2330417893        1.0180249473
	 C          -3.4254275575       -2.8376848364       -0.6000240346
	 H          -2.9708668780       -4.4265703029        0.6195170700
	 H          -5.3884237622       -3.0253094026       -1.2168219648
	 H          -2.1819208110       -2.8344252072       -2.2305817099
	             0.0070250542       -0.0009469501       -0.0034896912
	            -0.0017522303       -0.0075643679        0.0185652524
	             0.0036608632        0.0088468777       -0.0036270479
	             0.0028207453       -0.0005436531       -0.0022440950
	             0.0040030653       -0.0081233550       -0.0033724935
	             0.0070332810        0.0113590957       -0.0226103496
	            -0.0202424017       -0.0042167045        0.0186104767
	            -0.0005274030       -0.0032217303       -0.0016614198
	            -0.0001337256       -0.0018332306        0.0024349943
	             0.0027596852        0.0001615986       -0.0014647603
	            -0.0020935673        0.0002213542       -0.0011487839
	            -0.0028680484        0.0016666266       -0.0014240051
	            -0.0006869355        0.0010085580        0.0025753336
	            -0.0013678826       -0.0021492298       -0.0013451255
	             0.0015175790        0.0022364141       -0.0019893490
	             0.0001772475       -0.0012555135       -0.0002551649
	            -0.0007167374        0.0028870414       -0.0017435084
	             0.0029833358        0.0008094245        0.0015259857
	            -0.0015919249        0.0006577438        0.0026637515

	Previous optimization step data not found.  Starting new optimization.

	---Fragment 1 Intrafragment Coordinates---
	 - Coordinate -           - BOHR/RAD -       - ANG/DEG -
	 R(1,2)           =         2.907163	       1.538404
	 R(1,6)           =         2.365930	       1.251996
	 R(1,7)           =         2.376149	       1.257404
	 R(2,5)           =         2.546078	       1.347326
	 R(3,4)           =         2.049984	       1.084805
	 R(3,5)           =         2.458422	       1.300941
	 R(3,16)          =         2.798903	       1.481115
	 R(5,8)           =         2.748571	       1.454481
	 R(7,12)          =         2.745855	       1.453044
	 R(8,9)           =         2.051300	       1.085501
	 R(8,10)          =         2.053664	       1.086752
	 R(8,11)          =         2.061085	       1.090679
	 R(12,13)         =         2.059630	       1.089909
	 R(12,14)         =         2.064784	       1.092637
	 R(12,15)         =         2.066511	       1.093551
	 R(16,17)         =         2.053890	       1.086872
	 R(16,18)         =         2.066155	       1.093362
	 R(16,19)         =         2.050619	       1.085141
	 B(1,2,5)         =         1.860417	     106.594059
	 B(1,7,12)        =         2.014982	     115.449969
	 B(2,1,6)         =         1.953131	     111.906158
	 B(2,1,7)         =         1.902937	     109.030262
	 B(2,5,3)         =         1.988396	     113.926675
	 B(2,5,8)         =         1.978285	     113.347363
	 B(3,5,8)         =         2.137771	     122.485263
	 B(3,16,17)       =         1.904285	     109.107490
	 B(3,16,18)       =         1.885891	     108.053605
	 B(3,16,19)       =         1.945670	     111.478706
	 B(4,3,5)         =         2.005598	     114.912295
	 B(4,3,16)        =         2.066708	     118.413669
	 B(5,3,16)        =         2.164244	     124.002056
	 B(5,8,9)         =         1.886793	     108.105287
	 B(5,8,10)        =         1.906744	     109.248411
	 B(5,8,11)        =         1.893682	     108.499998
	 B(6,1,7)         =         2.426750	     139.042526
	 B(7,12,13)       =         1.902905	     109.028436
	 B(7,12,14)       =         1.923467	     110.206531
	 B(7,12,15)       =         1.974450	     113.127664
	 B(9,8,10)        =         1.921045	     110.067757
	 B(9,8,11)        =         1.920537	     110.038683
	 B(10,8,11)       =         1.934147	     110.818453
	 B(13,12,14)      =         1.870369	     107.164228
	 B(13,12,15)      =         1.902955	     109.031297
	 B(14,12,15)      =         1.886764	     108.103600
	 B(17,16,18)      =         1.893649	     108.498092
	 B(17,16,19)      =         1.916822	     109.825800
	 B(18,16,19)      =         1.916544	     109.809895
	 D(1,2,5,3)       =        -0.890156	     -51.002205
	 D(1,2,5,8)       =         1.662440	      95.250774
	 D(1,7,12,13)     =         2.448074	     140.264299
	 D(1,7,12,14)     =        -1.786794	    -102.375742
	 D(1,7,12,15)     =         0.327639	      18.772343
	 D(2,1,7,12)      =        -3.113768	    -178.405751
	 D(2,5,3,4)       =         2.773585	     158.914740
	 D(2,5,3,16)      =        -0.697659	     -39.972888
	 D(2,5,8,9)       =         1.006935	      57.693149
	 D(2,5,8,10)      =         3.097349	     177.465042
	 D(2,5,8,11)      =        -1.075429	     -61.617569
	 D(3,5,8,9)       =        -2.780636	    -159.318683
	 D(3,5,8,10)      =        -0.690222	     -39.546791
	 D(3,5,8,11)      =         1.420185	      81.370598
	 D(4,3,5,8)       =         0.281319	      16.118380
	 D(4,3,16,17)     =        -0.981884	     -56.257821
	 D(4,3,16,18)     =         1.073766	      61.522234
	 D(4,3,16,19)     =        -3.101917	    -177.726780
	 D(5,2,1,6)       =         0.187027	      10.715847
	 D(5,2,1,7)       =        -2.978000	    -170.626818
	 D(5,3,16,17)     =         2.500045	     143.242038
	 D(5,3,16,18)     =        -1.727490	     -98.977907
	 D(5,3,16,19)     =         0.380012	      21.773079
	 D(6,1,7,12)      =        -0.005347	      -0.306340
	 D(8,5,3,16)      =         3.093260	     177.230751
	 R(1,16)          =         5.639962	       2.984539
	 R(3,6)           =         4.045692	       2.140888
	 R(6,8)           =         5.968223	       3.158248
	 R(6,16)          =         5.001059	       2.646446

	Current energy   :      -455.0171624351

	Generating empirical Hessian (Schlegel '84) for each fragment.
	Taking PRFO optimization step.
	Maximizing along 1 lowest eigenvalue of Hessian.

 RFO min eigenvalues
 -0.003896 -0.000000 -0.000000 -0.000000 -0.000000 -0.000000 -0.000000 -0.000000
 -0.000000 -0.000000 -0.000000 -0.000000 -0.000000  0.000000  0.000000  0.000000
  0.000000  0.000000  0.000000  0.000000  0.000000  0.000000  0.000000  0.000000
  0.000000  0.004353  0.004557  0.006092  0.007445  0.015453  0.018020  0.020218
  0.024561  0.026572  0.030424  0.056382  0.072920  0.074469  0.075948  0.077095
  0.081043  0.094983  0.100034  0.154151  0.160000  0.160000  0.160000  0.160000
  0.160000  0.160000  0.160000  0.160000  0.160046  0.201679  0.218211  0.243224
  0.250000  0.250037  0.281614  0.319425  0.344081  0.344305  0.345120  0.347359
  0.348252  0.351793  0.351939  0.353401  0.353830  0.354238  0.358579  0.378553
  0.539234  0.640405  0.806541  0.815648

 RFO max eigenvalues
 -0.000000  0.000000
	|RFO target step|  :        0.1480087433
	RFO gradient       :       -0.0263219242
	RFO hessian        :        0.1739740661
	Projected Delta(E) :       -0.0019476201

	Back-transformation to cartesian coordinates...
	Successfully converged to displaced geometry.
	First geometry is closer to target in internal coordinates, so am using that one.
	First geometry has RMS(Delta(q)) = 1.59e-03

	--- Internal Coordinate Step in ANG or DEG, aJ/ANG or AJ/DEG ---
	 ---------------------------------------------------------------------------
	   Coordinate                Previous        Force       Change         New 
	   ----------                --------       ------       ------       ------
	    1 R(1,2)          =      1.538404     0.095253     0.023598     1.562002
	    2 R(1,6)          =      1.251996     0.206290     0.016641     1.268638
	    3 R(1,7)          =      1.257404     0.236556     0.019063     1.276467
	    4 R(2,5)          =      1.347326     0.094485     0.011747     1.359073
	    5 R(3,4)          =      1.084805     0.028400     0.005462     1.090267
	    6 R(3,5)          =      1.300941     0.093599     0.010383     1.311323
	    7 R(3,16)         =      1.481115     0.009948     0.005227     1.486343
	    8 R(5,8)          =      1.454481     0.015078     0.005801     1.460282
	    9 R(7,12)         =      1.453044     0.040273     0.006855     1.459899
	   10 R(8,9)          =      1.085501     0.024464     0.004518     1.090019
	   11 R(8,10)         =      1.086752     0.025438     0.004629     1.091381
	   12 R(8,11)         =      1.090679     0.019583     0.003639     1.094318
	   13 R(12,13)        =      1.089909     0.022313     0.005102     1.095011
	   14 R(12,14)        =      1.092637     0.022964     0.005093     1.097729
	   15 R(12,15)        =      1.093551     0.027392     0.005907     1.099457
	   16 R(16,17)        =      1.086872     0.028237     0.005438     1.092309
	   17 R(16,18)        =      1.093362     0.027710     0.005452     1.098814
	   18 R(16,19)        =      1.085141     0.025395     0.004858     1.089999
	   19 B(1,2,5)        =    106.594059    -0.000492    -1.006569   105.587490
	   20 B(1,7,12)       =    115.449969    -0.000011    -0.024517   115.425452
	   21 B(2,1,6)        =    111.906158     0.000109     0.437504   112.343662
	   22 B(2,1,7)        =    109.030262    -0.000282    -0.877319   108.152944
	   23 B(2,5,3)        =    113.926675    -0.000013     0.236237   114.162913
	   24 B(2,5,8)        =    113.347363     0.000015     0.084631   113.431994
	   25 B(3,5,8)        =    122.485263    -0.000005     0.476654   122.961917
	   26 B(3,16,17)      =    109.107490     0.000019     0.085158   109.192648
	   27 B(3,16,18)      =    108.053605     0.000063     0.287346   108.340951
	   28 B(3,16,19)      =    111.478706     0.000062     0.265228   111.743934
	   29 B(4,3,5)        =    114.912295     0.000056    -0.131284   114.781010
	   30 B(4,3,16)       =    118.413669     0.000115    -0.107484   118.306186
	   31 B(5,3,16)       =    124.002056    -0.000157    -0.110716   123.891340
	   32 B(5,8,9)        =    108.105287    -0.000073    -0.366728   107.738559
	   33 B(5,8,10)       =    109.248411    -0.000038    -0.162883   109.085528
	   34 B(5,8,11)       =    108.499998    -0.000008    -0.010783   108.489215
	   35 B(6,1,7)        =    139.042526     0.000177     0.460373   139.502899
	   36 B(7,12,13)      =    109.028436    -0.000080    -0.368088   108.660348
	   37 B(7,12,14)      =    110.206531    -0.000048    -0.233723   109.972809
	   38 B(7,12,15)      =    113.127664    -0.000020    -0.128036   112.999628
	   39 B(9,8,10)       =    110.067757     0.000043     0.154835   110.222592
	   40 B(9,8,11)       =    110.038683     0.000033     0.122764   110.161447
	   41 B(10,8,11)      =    110.818453     0.000039     0.240032   111.058485
	   42 B(13,12,14)     =    107.164228     0.000070     0.340743   107.504970
	   43 B(13,12,15)     =    109.031297     0.000041     0.165852   109.197149
	   44 B(14,12,15)     =    108.103600     0.000045     0.255688   108.359288
	   45 B(17,16,18)     =    108.498092    -0.000035    -0.140998   108.357094
	   46 B(17,16,19)     =    109.825800    -0.000045    -0.210450   109.615349
	   47 B(18,16,19)     =    109.809895    -0.000064    -0.289688   109.520207
	   48 D(1,2,5,3)      =    -51.002205    -0.000007    -0.824334   -51.826539
	   49 D(1,2,5,8)      =     95.250774    -0.000008     0.526938    95.777712
	   50 D(1,7,12,13)    =    140.264299     0.000001     1.326462   141.590761
	   51 D(1,7,12,14)    =   -102.375742     0.000004     1.387777  -100.987965
	   52 D(1,7,12,15)    =     18.772343     0.000006     1.460501    20.232845
	   53 D(2,1,7,12)     =   -178.405751    -0.000013    -0.525264  -178.931015
	   54 D(2,5,3,4)      =    158.914740     0.000035     2.591622   161.506362
	   55 D(2,5,3,16)     =    -39.972888     0.000052     1.413343   -38.559545
	   56 D(2,5,8,9)      =     57.693149     0.000002    -0.527615    57.165534
	   57 D(2,5,8,10)     =    177.465042    -0.000001    -0.648799   176.816243
	   58 D(2,5,8,11)     =    -61.617569     0.000003    -0.460943   -62.078512
	   59 D(3,5,8,9)      =   -159.318683    -0.000000     0.850340  -158.468343
	   60 D(3,5,8,10)     =    -39.546791    -0.000003     0.729156   -38.817635
	   61 D(3,5,8,11)     =     81.370598     0.000001     0.917012    82.287611
	   62 D(4,3,5,8)      =     16.118380     0.000035     1.253910    17.372289
	   63 D(4,3,16,17)    =    -56.257821     0.000008    -0.354877   -56.612698
	   64 D(4,3,16,18)    =     61.522234     0.000009    -0.313539    61.208695
	   65 D(4,3,16,19)    =   -177.726780     0.000008    -0.320325  -178.047105
	   66 D(5,2,1,6)      =     10.715847    -0.000030     0.855793    11.571640
	   67 D(5,2,1,7)      =   -170.626818    -0.000007     1.993668  -168.633150
	   68 D(5,3,16,17)    =    143.242038    -0.000007     0.866024   144.108062
	   69 D(5,3,16,18)    =    -98.977907    -0.000006     0.907362   -98.070544
	   70 D(5,3,16,19)    =     21.773079    -0.000006     0.900576    22.673656
	   71 D(6,1,7,12)     =     -0.306340     0.000019     1.083653     0.777312
	   72 D(8,5,3,16)     =    177.230751     0.000052     0.075631   177.306382
	   73 R(1,16)         =      2.984539     0.019073     0.010228     2.994768
	   74 R(3,6)          =      2.140888    -0.015387     0.016518     2.157406
	   75 R(6,8)          =      3.158248     0.037207     0.034146     3.192394
	   76 R(6,16)         =      2.646446     0.020911     0.005711     2.652157
	 ---------------------------------------------------------------------------
	Successfully symmetrized geometry.

  ==> Convergence Check <==

  Measures of convergence in internal coordinates in au.
  Criteria marked as inactive (o), active & met (*), and active & unmet ( ).
  --------------------------------------------------------------------------------------------- ~
   Step     Total Energy     Delta E     MAX Force     RMS Force      MAX Disp      RMS Disp    ~
  --------------------------------------------------------------------------------------------- ~
    Convergence Criteria    1.00e-06 *    3.00e-04 *             o    1.20e-03 *             o  ~
  --------------------------------------------------------------------------------------------- ~
      1    -455.01716244   -4.55e+02      2.87e-02      5.27e-03 o    6.45e-02      1.70e-02 o  ~
  ---------------------------------------------------------------------------------------------

	Writing optimization data to binary file.
	Structure for next step:
	Cartesian Geometry (in Angstrom)
	    C     0.8359849086  -0.1734451930  -0.1048414457
	    O    -0.1958599390   0.7125678258  -0.8730397029
	    C    -1.7129655535  -0.2483391563   0.4688657388
	    H    -2.3197593442  -0.1349321367   1.3675435601
	    N    -1.2438277991   0.8731879505  -0.0227191223
	    O     0.3452532865  -0.6815345085   0.9489464923
	    N     1.9340068734  -0.1600648568  -0.7556390254
	    C    -1.1834920278   2.1136239543   0.7454612909
	    H    -1.1327913320   2.9406880575   0.0372697878
	    H    -2.0819235397   2.1972160547   1.3594206691
	    H    -0.2830031193   2.0934906891   1.3669478278
	    C     3.0104679069  -0.9646233594  -0.1853563867
	    H     3.5605371442  -1.4433913972  -1.0022130849
	    H     3.7158081178  -0.3190701378   0.3538708437
	    H     2.6483207699  -1.7370878653   0.5081523870
	    C    -1.8373517704  -1.5073414859  -0.3112978872
	    H    -1.6221888200  -2.3567073472   0.3409460433
	    H    -2.8746593467  -1.5951338168  -0.6629775530
	    H    -1.1606789507  -1.5214609239  -1.1657049397
			--------------------------
			 OPTKING Finished Execution 
			--------------------------

    Structure for next step:
    Molecular point group: c1
    Full point group: C1

    Geometry (in Angstrom), charge = 0, multiplicity = 1:

    C            0.837188727503    -0.167523314292    -0.106313952492
    O           -0.194656120166     0.718489704442    -0.874512209736
    C           -1.711761734622    -0.242417277640     0.467393231938
    H           -2.318555525360    -0.129010257986     1.366071053276
    N           -1.242623980190     0.879109829161    -0.024191629092
    O            0.346457105399    -0.675612629819     0.947473985437
    N            1.935210692240    -0.154142978144    -0.757111532229
    C           -1.182288208900     2.119545832956     0.743988784047
    H           -1.131587513171     2.946609936199     0.035797280937
    H           -2.080719720820     2.203137933364     1.357948162270
    H           -0.281799300440     2.099412567725     1.365475320943
    C            3.011671725793    -0.958701480713    -0.186828893535
    H            3.561740963089    -1.437469518503    -1.003685591700
    H            3.717011936676    -0.313148259136     0.352398336915
    H            2.649524588775    -1.731165986586     0.506679880154
    C           -1.836147951511    -1.501419607221    -0.312770393991
    H           -1.620985001166    -2.350785468553     0.339473536494
    H           -2.873455527808    -1.589211938139    -0.664450059836
    H           -1.159475131815    -1.515539045196    -1.167177446507

gradient() will perform analytic gradient computation.

*** tstart() called on localhost.localdomain
*** at Tue Jan 15 08:49:02 2019

    SCF Algorithm Type (re)set to DF.

*** tstart() called on localhost.localdomain
*** at Tue Jan 15 08:49:02 2019

   => Loading Basis Set <=

    Name: 6-31+G(D)
    Role: ORBITAL
    Keyword: BASIS
    atoms 1, 3, 8, 12, 16       entry C          line   119 file /root/psi4conda/share/psi4/basis/6-31pg_d_.gbs 
    atoms 2, 6                  entry O          line   157 file /root/psi4conda/share/psi4/basis/6-31pg_d_.gbs 
    atoms 4, 9-11, 13-15, 17-19 entry H          line    46 file /root/psi4conda/share/psi4/basis/6-31pg_d_.gbs 
    atoms 5, 7                  entry N          line   138 file /root/psi4conda/share/psi4/basis/6-31pg_d_.gbs 


         ---------------------------------------------------------
                                   SCF
            by Justin Turney, Rob Parrish, Andy Simmonett
                             and Daniel Smith
                              RHF Reference
                        1 Threads,    500 MiB Core
         ---------------------------------------------------------

  ==> Geometry <==

    Molecular point group: c1
    Full point group: C1

    Geometry (in Angstrom), charge = 0, multiplicity = 1:

       Center              X                  Y                   Z               Mass       
    ------------   -----------------  -----------------  -----------------  -----------------
         C            0.837188727503    -0.167523314292    -0.106313952492    12.000000000000
         O           -0.194656120166     0.718489704442    -0.874512209736    15.994914619560
         C           -1.711761734622    -0.242417277640     0.467393231938    12.000000000000
         H           -2.318555525360    -0.129010257986     1.366071053276     1.007825032070
         N           -1.242623980190     0.879109829161    -0.024191629092    14.003074004780
         O            0.346457105399    -0.675612629819     0.947473985437    15.994914619560
         N            1.935210692240    -0.154142978144    -0.757111532229    14.003074004780
         C           -1.182288208900     2.119545832956     0.743988784047    12.000000000000
         H           -1.131587513171     2.946609936199     0.035797280937     1.007825032070
         H           -2.080719720820     2.203137933364     1.357948162270     1.007825032070
         H           -0.281799300440     2.099412567725     1.365475320943     1.007825032070
         C            3.011671725793    -0.958701480713    -0.186828893535    12.000000000000
         H            3.561740963089    -1.437469518503    -1.003685591700     1.007825032070
         H            3.717011936676    -0.313148259136     0.352398336915     1.007825032070
         H            2.649524588775    -1.731165986586     0.506679880154     1.007825032070
         C           -1.836147951511    -1.501419607221    -0.312770393991    12.000000000000
         H           -1.620985001166    -2.350785468553     0.339473536494     1.007825032070
         H           -2.873455527808    -1.589211938139    -0.664450059836     1.007825032070
         H           -1.159475131815    -1.515539045196    -1.167177446507     1.007825032070

  Running in c1 symmetry.

  Rotational constants: A =      0.09167  B =      0.04044  C =      0.03356 [cm^-1]
  Rotational constants: A =   2748.06183  B =   1212.46228  C =   1006.00101 [MHz]
  Nuclear repulsion =  484.381474148520567

  Charge       = 0
  Multiplicity = 1
  Electrons    = 70
  Nalpha       = 35
  Nbeta        = 35

  ==> Algorithm <==

  SCF Algorithm Type is DF.
  DIIS enabled.
  MOM disabled.
  Fractional occupation disabled.
  Guess Type is READ.
  Energy threshold   = 1.00e-10
  Density threshold  = 1.00e-10
  Integral threshold = 0.00e+00

  ==> Primary Basis <==

  Basis Set: 6-31+G(D)
    Blend: 6-31+G(D)
    Number of shells: 92
    Number of basis function: 191
    Number of Cartesian functions: 191
    Spherical Harmonics?: false
    Max angular momentum: 2

   => Loading Basis Set <=

    Name: (6-31+G(D) AUX)
    Role: JKFIT
    Keyword: DF_BASIS_SCF
    atoms 1, 3, 8, 12, 16       entry C          line   194 file /root/psi4conda/share/psi4/basis/heavy-aug-cc-pvdz-jkfit.gbs 
    atoms 2, 6                  entry O          line   310 file /root/psi4conda/share/psi4/basis/heavy-aug-cc-pvdz-jkfit.gbs 
    atoms 4, 9-11, 13-15, 17-19 entry H          line   116 file /root/psi4conda/share/psi4/basis/heavy-aug-cc-pvdz-jkfit.gbs 
    atoms 5, 7                  entry N          line   252 file /root/psi4conda/share/psi4/basis/heavy-aug-cc-pvdz-jkfit.gbs 

  Reading orbitals from file 180, no projection.

  ==> Pre-Iterations <==

   -------------------------------------------------------
    Irrep   Nso     Nmo     Nalpha   Nbeta   Ndocc  Nsocc
   -------------------------------------------------------
     A        191     191       0       0       0       0
   -------------------------------------------------------
    Total     191     191      35      35      35       0
   -------------------------------------------------------

  ==> Integral Setup <==

  ==> DiskDFJK: Density-Fitted J/K Matrices <==

    J tasked:                  Yes
    K tasked:                  Yes
    wK tasked:                  No
    OpenMP threads:              1
    Integrals threads:           1
    Memory (MB):               375
    Algorithm:                Core
    Integral Cache:           NONE
    Schwarz Cutoff:          1E-12
    Fitting Condition:       1E-12

   => Auxiliary Basis Set <=

  Basis Set: (6-31+G(D) AUX)
    Blend: HEAVY-AUG-CC-PVDZ-JKFIT
    Number of shells: 342
    Number of basis function: 1159
    Number of Cartesian functions: 1159
    Spherical Harmonics?: false
    Max angular momentum: 3

  Minimum eigenvalue in the overlap matrix is 5.9468919370E-05.
  Using Symmetric Orthogonalization.

  SCF Guess: Orbitals guess was supplied from a previous computation.

  ==> Iterations <==

                           Total Energy        Delta E     RMS |[F,P]|

   @DF-RHF iter   0:  -453.58512486776567   -4.53585e+02   6.23300e-04 
   @DF-RHF iter   1:  -453.65667369349734   -7.15488e-02   1.23407e-04 
   @DF-RHF iter   2:  -453.65694870425091   -2.75011e-04   7.26063e-05 DIIS
   @DF-RHF iter   3:  -453.65703164299157   -8.29387e-05   1.86567e-05 DIIS
   @DF-RHF iter   4:  -453.65704429640203   -1.26534e-05   8.95958e-06 DIIS
   @DF-RHF iter   5:  -453.65704642043318   -2.12403e-06   2.44114e-06 DIIS
   @DF-RHF iter   6:  -453.65704675348849   -3.33055e-07   1.21133e-06 DIIS
   @DF-RHF iter   7:  -453.65704682041383   -6.69253e-08   3.67486e-07 DIIS
   @DF-RHF iter   8:  -453.65704682870825   -8.29442e-09   1.14130e-07 DIIS
   @DF-RHF iter   9:  -453.65704682931857   -6.10328e-10   4.79815e-08 DIIS
   @DF-RHF iter  10:  -453.65704682943442   -1.15847e-10   1.62783e-08 DIIS
   @DF-RHF iter  11:  -453.65704682945227   -1.78488e-11   7.79352e-09 DIIS
   @DF-RHF iter  12:  -453.65704682945307   -7.95808e-13   2.23398e-09 DIIS
   @DF-RHF iter  13:  -453.65704682945284    2.27374e-13   8.73145e-10 DIIS
   @DF-RHF iter  14:  -453.65704682945380   -9.66338e-13   3.62057e-10 DIIS
   @DF-RHF iter  15:  -453.65704682945471   -9.09495e-13   1.30158e-10 DIIS
   @DF-RHF iter  16:  -453.65704682945443    2.84217e-13   5.18347e-11 DIIS

  ==> Post-Iterations <==

    Orbital Energies [Eh]
    ---------------------

    Doubly Occupied:                                                      

       1A    -20.628194     2A    -20.536623     3A    -15.703724  
       4A    -15.509963     5A    -11.390167     6A    -11.363355  
       7A    -11.298863     8A    -11.268300     9A    -11.218110  
      10A     -1.491089    11A     -1.345984    12A     -1.232067  
      13A     -1.161932    14A     -1.079446    15A     -0.978936  
      16A     -0.913636    17A     -0.838689    18A     -0.764255  
      19A     -0.731108    20A     -0.700743    21A     -0.676758  
      22A     -0.631282    23A     -0.618120    24A     -0.612807  
      25A     -0.593476    26A     -0.590709    27A     -0.574727  
      28A     -0.568917    29A     -0.535437    30A     -0.527031  
      31A     -0.492096    32A     -0.452517    33A     -0.438830  
      34A     -0.376628    35A     -0.331888  

    Virtual:                                                              

      36A      0.049034    37A      0.070194    38A      0.072389  
      39A      0.080994    40A      0.096147    41A      0.104669  
      42A      0.112667    43A      0.116985    44A      0.120142  
      45A      0.131153    46A      0.139873    47A      0.144946  
      48A      0.156626    49A      0.158283    50A      0.170180  
      51A      0.180748    52A      0.197770    53A      0.213360  
      54A      0.221562    55A      0.231573    56A      0.249917  
      57A      0.250558    58A      0.275488    59A      0.277352  
      60A      0.283402    61A      0.304225    62A      0.312097  
      63A      0.317869    64A      0.337071    65A      0.346529  
      66A      0.355968    67A      0.361669    68A      0.365092  
      69A      0.375673    70A      0.381935    71A      0.389502  
      72A      0.404187    73A      0.408690    74A      0.416337  
      75A      0.424635    76A      0.432117    77A      0.446480  
      78A      0.448229    79A      0.465170    80A      0.474104  
      81A      0.476278    82A      0.494574    83A      0.510641  
      84A      0.531081    85A      0.537061    86A      0.562305  
      87A      0.582651    88A      0.597258    89A      0.603934  
      90A      0.664554    91A      0.808462    92A      0.836614  
      93A      0.858678    94A      0.895671    95A      0.911628  
      96A      0.926731    97A      0.949141    98A      0.966149  
      99A      0.979096   100A      0.985931   101A      0.991795  
     102A      1.024440   103A      1.042915   104A      1.052499  
     105A      1.101358   106A      1.118196   107A      1.155499  
     108A      1.182813   109A      1.192791   110A      1.207057  
     111A      1.230579   112A      1.243238   113A      1.264744  
     114A      1.279507   115A      1.291404   116A      1.303004  
     117A      1.330976   118A      1.342365   119A      1.346161  
     120A      1.359142   121A      1.380611   122A      1.402535  
     123A      1.443621   124A      1.445742   125A      1.482796  
     126A      1.507377   127A      1.548183   128A      1.579341  
     129A      1.600045   130A      1.659446   131A      1.671239  
     132A      1.682248   133A      1.698633   134A      1.728302  
     135A      1.741677   136A      1.797549   137A      1.818186  
     138A      1.839562   139A      1.854558   140A      1.887953  
     141A      1.930101   142A      1.951003   143A      2.021803  
     144A      2.071183   145A      2.092086   146A      2.137808  
     147A      2.158743   148A      2.200356   149A      2.237857  
     150A      2.265591   151A      2.305667   152A      2.329822  
     153A      2.352509   154A      2.364393   155A      2.393051  
     156A      2.466974   157A      2.483626   158A      2.510924  
     159A      2.536928   160A      2.541225   161A      2.556356  
     162A      2.576497   163A      2.590205   164A      2.634301  
     165A      2.653461   166A      2.696897   167A      2.712186  
     168A      2.755103   169A      2.780045   170A      2.800960  
     171A      2.896353   172A      2.945623   173A      3.059211  
     174A      3.100107   175A      3.123269   176A      3.175566  
     177A      3.208403   178A      3.278657   179A      3.347475  
     180A      3.421067   181A      3.516290   182A      3.672940  
     183A      4.550598   184A      4.671182   185A      4.701283  
     186A      4.788157   187A      4.807837   188A      4.874629  
     189A      4.908411   190A      4.954728   191A      5.108291  

    Final Occupation by Irrep:
              A 
    DOCC [    35 ]

  Energy converged.

  @DF-RHF Final Energy:  -453.65704682945443

   => Energetics <=

    Nuclear Repulsion Energy =            484.3814741485205673
    One-Electron Energy =               -1579.7242293142037397
    Two-Electron Energy =                 641.6857083362287995
    Total Energy =                       -453.6570468294544298



Properties will be evaluated at   0.000000,   0.000000,   0.000000 [a0]

Properties computed using the SCF density matrix

  Nuclear Dipole Moment: [e a0]
     X:    -1.4434      Y:    -1.7054      Z:     2.3355

  Electronic Dipole Moment: [e a0]
     X:    -1.1600      Y:     1.9092      Z:    -1.3204

  Dipole Moment: [e a0]
     X:    -2.6033      Y:     0.2038      Z:     1.0151     Total:     2.8017

  Dipole Moment: [D]
     X:    -6.6170      Y:     0.5179      Z:     2.5802     Total:     7.1211


*** tstop() called on localhost.localdomain at Tue Jan 15 08:49:16 2019
Module time:
	user time   =      12.95 seconds =       0.22 minutes
	system time =       0.35 seconds =       0.01 minutes
	total time  =         14 seconds =       0.23 minutes
Total time:
	user time   =      68.86 seconds =       1.15 minutes
	system time =       2.45 seconds =       0.04 minutes
	total time  =         72 seconds =       1.20 minutes

  //>>>>>>>>>>>>>>>>>>>>>>>>>>>>>>>>>>>//
  //               DFMP2               //
  //<<<<<<<<<<<<<<<<<<<<<<<<<<<<<<<<<<<//

   => Loading Basis Set <=

    Name: (6-31+G(D) AUX)
    Role: RIFIT
    Keyword: DF_BASIS_MP2
    atoms 1, 3, 8, 12, 16       entry C          line   116 file /root/psi4conda/share/psi4/basis/heavy-aug-cc-pvdz-ri.gbs 
    atoms 2, 6                  entry O          line   208 file /root/psi4conda/share/psi4/basis/heavy-aug-cc-pvdz-ri.gbs 
    atoms 4, 9-11, 13-15, 17-19 entry H          line    44 file /root/psi4conda/share/psi4/basis/heavy-aug-cc-pvdz-ri.gbs 
    atoms 5, 7                  entry N          line   162 file /root/psi4conda/share/psi4/basis/heavy-aug-cc-pvdz-ri.gbs 

	 --------------------------------------------------------
	                          DF-MP2                         
	      2nd-Order Density-Fitted Moller-Plesset Theory     
	              RMP2 Wavefunction,   1 Threads             
	                                                         
	        Rob Parrish, Justin Turney, Andy Simmonett,      
	           Ed Hohenstein, and C. David Sherrill          
	 --------------------------------------------------------

   => Auxiliary Basis Set <=

  Basis Set: (6-31+G(D) AUX)
    Blend: HEAVY-AUG-CC-PVDZ-RI
    Number of shells: 258
    Number of basis function: 788
    Number of Cartesian functions: 924
    Spherical Harmonics?: true
    Max angular momentum: 3

	 --------------------------------------------------------
	                 NBF =   191, NAUX =   788
	 --------------------------------------------------------
	   CLASS    FOCC     OCC    AOCC    AVIR     VIR    FVIR
	   PAIRS       9      35      26     156     156       0
	 --------------------------------------------------------


         ------------------------------------------------------------
                                     CPHF                           
                                  Rob Parrish                       
         ------------------------------------------------------------

  ==> Geometry <==

    Molecular point group: c1
    Full point group: C1

    Geometry (in Angstrom), charge = 0, multiplicity = 1:

       Center              X                  Y                   Z               Mass       
    ------------   -----------------  -----------------  -----------------  -----------------
         C            0.837188727503    -0.167523314292    -0.106313952492    12.000000000000
         O           -0.194656120166     0.718489704442    -0.874512209736    15.994914619560
         C           -1.711761734622    -0.242417277640     0.467393231938    12.000000000000
         H           -2.318555525360    -0.129010257986     1.366071053276     1.007825032070
         N           -1.242623980190     0.879109829161    -0.024191629092    14.003074004780
         O            0.346457105399    -0.675612629819     0.947473985437    15.994914619560
         N            1.935210692240    -0.154142978144    -0.757111532229    14.003074004780
         C           -1.182288208900     2.119545832956     0.743988784047    12.000000000000
         H           -1.131587513171     2.946609936199     0.035797280937     1.007825032070
         H           -2.080719720820     2.203137933364     1.357948162270     1.007825032070
         H           -0.281799300440     2.099412567725     1.365475320943     1.007825032070
         C            3.011671725793    -0.958701480713    -0.186828893535    12.000000000000
         H            3.561740963089    -1.437469518503    -1.003685591700     1.007825032070
         H            3.717011936676    -0.313148259136     0.352398336915     1.007825032070
         H            2.649524588775    -1.731165986586     0.506679880154     1.007825032070
         C           -1.836147951511    -1.501419607221    -0.312770393991    12.000000000000
         H           -1.620985001166    -2.350785468553     0.339473536494     1.007825032070
         H           -2.873455527808    -1.589211938139    -0.664450059836     1.007825032070
         H           -1.159475131815    -1.515539045196    -1.167177446507     1.007825032070

  Nuclear repulsion =  484.381474148520567
  Reference energy  = -453.657046829454430

  ==> Basis Set <==

  Basis Set: 6-31+G(D)
    Blend: 6-31+G(D)
    Number of shells: 92
    Number of basis function: 191
    Number of Cartesian functions: 191
    Spherical Harmonics?: false
    Max angular momentum: 2

  ==> CGRSolver (by Rob Parrish) <==

   Number of roots    =         1
   Preconditioning    =    JACOBI
   Convergence cutoff =     1E-06
   Maximum iterations =       100

  ==> CPHFRHamiltonian (by Rob Parrish) <== 

  ==> DiskDFJK: Density-Fitted J/K Matrices <==

    J tasked:                  Yes
    K tasked:                  Yes
    wK tasked:                  No
    OpenMP threads:              1
    Integrals threads:           1
    Memory (MB):               375
    Algorithm:                Core
    Integral Cache:           NONE
    Schwarz Cutoff:          1E-12
    Fitting Condition:       1E-12

   => Auxiliary Basis Set <=

  Basis Set: (6-31+G(D) AUX)
    Blend: HEAVY-AUG-CC-PVDZ-JKFIT
    Number of shells: 342
    Number of basis function: 1159
    Number of Cartesian functions: 1159
    Spherical Harmonics?: false
    Max angular momentum: 3

  ==> CPHF Iterations <==

  => Iterations <=

             Iter  Converged  Remaining    Residual
  CGR           1          0          1   1.778E-01
  CGR           2          0          1   4.843E-02
  CGR           3          0          1   2.610E-02
  CGR           4          0          1   7.670E-03
  CGR           5          0          1   3.236E-03
  CGR           6          0          1   9.464E-04
  CGR           7          0          1   4.272E-04
  CGR           8          0          1   1.558E-04
  CGR           9          0          1   5.666E-05
  CGR          10          0          1   2.065E-05
  CGR          11          0          1   6.462E-06
  CGR          12          0          1   2.007E-06
  CGR          13          1          0   7.483E-07

    CGRSolver converged.

  ==> DFCorrGrad: Density-Fitted Correlated Gradients <==

    OpenMP threads:              1
    Integrals threads:           1
    Memory (MB):               375
    Schwarz Cutoff:          0E+00
    Fitting Condition:       1E-12

   => Auxiliary Basis Set <=

  Basis Set: (6-31+G(D) AUX)
    Blend: HEAVY-AUG-CC-PVDZ-JKFIT
    Number of shells: 342
    Number of basis function: 1159
    Number of Cartesian functions: 1159
    Spherical Harmonics?: false
    Max angular momentum: 3

	-----------------------------------------------------------
	 ==================> DF-MP2 Energies <==================== 
	-----------------------------------------------------------
	 Reference Energy          =    -453.6570468294544298 [Eh]
	 Singles Energy            =      -0.0000000000000000 [Eh]
	 Same-Spin Energy          =      -0.3606208043639891 [Eh]
	 Opposite-Spin Energy      =      -1.0015721305068765 [Eh]
	 Correlation Energy        =      -1.3621929348708657 [Eh]
	 Total Energy              =    -455.0192397643252775 [Eh]
	-----------------------------------------------------------
	 ================> DF-SCS-MP2 Energies <================== 
	-----------------------------------------------------------
	 SCS Same-Spin Scale       =       0.3333333333333333 [-]
	 SCS Opposite-Spin Scale   =       1.2000000000000000 [-]
	 SCS Same-Spin Energy      =      -0.1202069347879964 [Eh]
	 SCS Opposite-Spin Energy  =      -1.2018865566082517 [Eh]
	 SCS Correlation Energy    =      -1.3220934913962481 [Eh]
	 SCS Total Energy          =    -454.9791403208506608 [Eh]
	-----------------------------------------------------------


  -Total Gradient:
     Atom            X                  Y                   Z
    ------   -----------------  -----------------  -----------------
       1       -0.005733228270     0.003074081547    -0.006607973144
       2        0.001680500510    -0.002265254059     0.004443225144
       3        0.001956963578    -0.001001895098     0.002160291641
       4       -0.000736917131    -0.000288884124     0.000063809265
       5        0.002751856077     0.001953212804    -0.002860788075
       6       -0.001987828902     0.000727203253     0.000225149089
       7        0.001416990329    -0.002194873447     0.003812024883
       8       -0.000092774277    -0.001812988012    -0.000222852346
       9        0.000014999928     0.000375902918     0.000015384132
      10       -0.000104327893     0.000330372667     0.000163436768
      11        0.000166971943     0.000238253710     0.000328018750
      12       -0.001170141587     0.002156729026    -0.001881718434
      13        0.000815549639    -0.000597580023    -0.000498493501
      14        0.000805542862     0.000285825186     0.000272690104
      15       -0.000329312015    -0.000535079051     0.000516247867
      16        0.000438014683    -0.000117455005     0.000312917540
      17       -0.000002226246    -0.000316627012     0.000110627631
      18       -0.000191065938    -0.000041012343    -0.000014393123
      19        0.000300432715     0.000030067064    -0.000337604190


*** tstop() called on localhost.localdomain at Tue Jan 15 08:49:58 2019
Module time:
	user time   =      53.23 seconds =       0.89 minutes
	system time =       1.88 seconds =       0.03 minutes
	total time  =         56 seconds =       0.93 minutes
Total time:
	user time   =     109.14 seconds =       1.82 minutes
	system time =       3.98 seconds =       0.07 minutes
	total time  =        114 seconds =       1.90 minutes

			-----------------------------------------
			 OPTKING 2.0: for geometry optimizations 
			  - R.A. King,  Bethel University        
			-----------------------------------------

	Previous internal coordinate definitions found.
	---Fragment 1 Geometry and Gradient---
	 C           1.5820574165       -0.3165731849       -0.2009042543
	 O          -0.3678467572        1.3577487707       -1.6525885763
	 C          -3.2347608832       -0.4581022646        0.8832452047
	 H          -4.3814349668       -0.2437940559        2.5815001688
	 N          -2.3482190087        1.6612768178       -0.0457155537
	 O           0.6547090460       -1.2767228423        1.7904663505
	 N           3.6570182178       -0.2912880140       -1.4307334480
	 C          -2.2342009250        4.0053611504        1.4059350478
	 H          -2.1383904953        5.5682857999        0.0676470573
	 H          -3.9319904316        4.1633273270        2.5661501293
	 H          -0.5325235023        3.9673147929        2.5803743978
	 C           5.6912347639       -1.8116832417       -0.3530554425
	 H           6.7307149765       -2.7164237143       -1.8966908918
	 H           7.0241345930       -0.5917644488        0.6659363465
	 H           5.0068758551       -3.2714296052        0.9574862105
	 C          -3.4698167678       -2.8372718682       -0.5910503871
	 H          -3.0632177177       -4.4423407327        0.6415120133
	 H          -5.4300440026       -3.0031753302       -1.2556286421
	 H          -2.1910904570       -2.8639537391       -2.2056457224
	            -0.0057332283        0.0030740815       -0.0066079731
	             0.0016805005       -0.0022652541        0.0044432251
	             0.0019569636       -0.0010018951        0.0021602916
	            -0.0007369171       -0.0002888841        0.0000638093
	             0.0027518561        0.0019532128       -0.0028607881
	            -0.0019878289        0.0007272033        0.0002251491
	             0.0014169903       -0.0021948734        0.0038120249
	            -0.0000927743       -0.0018129880       -0.0002228523
	             0.0000149999        0.0003759029        0.0000153841
	            -0.0001043279        0.0003303727        0.0001634368
	             0.0001669719        0.0002382537        0.0003280187
	            -0.0011701416        0.0021567290       -0.0018817184
	             0.0008155496       -0.0005975800       -0.0004984935
	             0.0008055429        0.0002858252        0.0002726901
	            -0.0003293120       -0.0005350791        0.0005162479
	             0.0004380147       -0.0001174550        0.0003129175
	            -0.0000022262       -0.0003166270        0.0001106276
	            -0.0001910659       -0.0000410123       -0.0000143931
	             0.0003004327        0.0000300671       -0.0003376042

	---Fragment 1 Intrafragment Coordinates---
	 - Coordinate -           - BOHR/RAD -       - ANG/DEG -
	 R(1,2)           =         2.951757	       1.562002
	 R(1,6)           =         2.397378	       1.268638
	 R(1,7)           =         2.412174	       1.276467
	 R(2,5)           =         2.568277	       1.359073
	 R(3,4)           =         2.060306	       1.090267
	 R(3,5)           =         2.478042	       1.311323
	 R(3,16)          =         2.808780	       1.486343
	 R(5,8)           =         2.759533	       1.460282
	 R(7,12)          =         2.758809	       1.459899
	 R(8,9)           =         2.059837	       1.090019
	 R(8,10)          =         2.062412	       1.091381
	 R(8,11)          =         2.067961	       1.094318
	 R(12,13)         =         2.069272	       1.095011
	 R(12,14)         =         2.074408	       1.097729
	 R(12,15)         =         2.077673	       1.099457
	 R(16,17)         =         2.064165	       1.092309
	 R(16,18)         =         2.076458	       1.098814
	 R(16,19)         =         2.059799	       1.089999
	 B(1,2,5)         =         1.842849	     105.587490
	 B(1,7,12)        =         2.014554	     115.425452
	 B(2,1,6)         =         1.960767	     112.343662
	 B(2,1,7)         =         1.887625	     108.152944
	 B(2,5,3)         =         1.992519	     114.162913
	 B(2,5,8)         =         1.979762	     113.431994
	 B(3,5,8)         =         2.146090	     122.961917
	 B(3,16,17)       =         1.905771	     109.192648
	 B(3,16,18)       =         1.890906	     108.340951
	 B(3,16,19)       =         1.950300	     111.743934
	 B(4,3,5)         =         2.003307	     114.781010
	 B(4,3,16)        =         2.064832	     118.306186
	 B(5,3,16)        =         2.162312	     123.891340
	 B(5,8,9)         =         1.880393	     107.738559
	 B(5,8,10)        =         1.903902	     109.085528
	 B(5,8,11)        =         1.893494	     108.489215
	 B(6,1,7)         =         2.434785	     139.502899
	 B(7,12,13)       =         1.896481	     108.660348
	 B(7,12,14)       =         1.919388	     109.972809
	 B(7,12,15)       =         1.972216	     112.999628
	 B(9,8,10)        =         1.923747	     110.222592
	 B(9,8,11)        =         1.922680	     110.161447
	 B(10,8,11)       =         1.938336	     111.058485
	 B(13,12,14)      =         1.876316	     107.504970
	 B(13,12,15)      =         1.905850	     109.197149
	 B(14,12,15)      =         1.891226	     108.359288
	 B(17,16,18)      =         1.891188	     108.357094
	 B(17,16,19)      =         1.913149	     109.615349
	 B(18,16,19)      =         1.911488	     109.520207
	 D(1,2,5,3)       =        -0.904544	     -51.826539
	 D(1,2,5,8)       =         1.671636	      95.777712
	 D(1,7,12,13)     =         2.471225	     141.590761
	 D(1,7,12,14)     =        -1.762572	    -100.987965
	 D(1,7,12,15)     =         0.353130	      20.232845
	 D(2,1,7,12)      =        -3.122935	    -178.931015
	 D(2,5,3,4)       =         2.818818	     161.506362
	 D(2,5,3,16)      =        -0.672991	     -38.559545
	 D(2,5,8,9)       =         0.997727	      57.165534
	 D(2,5,8,10)      =         3.086026	     176.816243
	 D(2,5,8,11)      =        -1.083474	     -62.078512
	 D(3,5,8,9)       =        -2.765794	    -158.468343
	 D(3,5,8,10)      =        -0.677496	     -38.817635
	 D(3,5,8,11)      =         1.436190	      82.287611
	 D(4,3,5,8)       =         0.303204	      17.372289
	 D(4,3,16,17)     =        -0.988078	     -56.612698
	 D(4,3,16,18)     =         1.068293	      61.208695
	 D(4,3,16,19)     =        -3.107508	    -178.047105
	 D(5,2,1,6)       =         0.201963	      11.571640
	 D(5,2,1,7)       =        -2.943204	    -168.633150
	 D(5,3,16,17)     =         2.515160	     144.108062
	 D(5,3,16,18)     =        -1.711654	     -98.070544
	 D(5,3,16,19)     =         0.395730	      22.673656
	 D(6,1,7,12)      =         0.013567	       0.777312
	 D(8,5,3,16)      =         3.094580	     177.306382
	 R(1,16)          =         5.659290	       2.994768
	 R(3,6)           =         4.076906	       2.157406
	 R(6,8)           =         6.032750	       3.192394
	 R(6,16)          =         5.011851	       2.652157

	Current energy   :      -455.0192397643

	Energy change for the previous step:
		Projected    :        -0.0019476201
		Actual       :        -0.0020773292

	Performing Bofill update.
	Previous computed or guess Hessian on step 1.
	Steps to be used in Hessian update: 1
	Taking PRFO optimization step.
	Maximizing along 1 lowest eigenvalue of Hessian.

 RFO min eigenvalues
 -0.001407 -0.000000 -0.000000 -0.000000 -0.000000 -0.000000 -0.000000 -0.000000
 -0.000000 -0.000000 -0.000000 -0.000000 -0.000000 -0.000000 -0.000000  0.000000
  0.000000  0.000000  0.000000  0.000000  0.000000  0.000000  0.000000  0.000000
  0.000000  0.003292  0.004380  0.006172  0.007411  0.012642  0.018010  0.022592
  0.025489  0.029819  0.033225  0.049470  0.072918  0.074509  0.075946  0.077093
  0.081371  0.094983  0.100034  0.154220  0.158345  0.159997  0.159998  0.159998
  0.159998  0.160000  0.160000  0.160000  0.160298  0.200853  0.216607  0.239160
  0.244616  0.251264  0.267410  0.320347  0.344162  0.344457  0.345446  0.347496
  0.348686  0.351821  0.352223  0.353501  0.353987  0.355166  0.358716  0.377324
  0.535538  0.643746  0.805916  0.817550

 RFO max eigenvalues
 -0.000000  0.000000
	Change in coordinate exceeds step limit of    0.50000.
	Scaling displacements by    0.96775
	|RFO target step|  :        0.5000000000
	RFO gradient       :       -0.0027223010
	RFO hessian        :        0.0040738630
	Projected Delta(E) :       -0.0006815341

	Back-transformation to cartesian coordinates...
	Could not converge backtransformation.
	Using first guess instead.

	--- Internal Coordinate Step in ANG or DEG, aJ/ANG or AJ/DEG ---
	 ---------------------------------------------------------------------------
	   Coordinate                Previous        Force       Change         New 
	   ----------                --------       ------       ------       ------
	    1 R(1,2)          =      1.562002     0.041284     0.033129     1.595131
	    2 R(1,6)          =      1.268638    -0.005569     0.003082     1.271720
	    3 R(1,7)          =      1.276467    -0.001500     0.001743     1.278211
	    4 R(2,5)          =      1.359073     0.015713     0.005933     1.365007
	    5 R(3,4)          =      1.090267    -0.003565    -0.000482     1.089785
	    6 R(3,5)          =      1.311323    -0.019611    -0.004627     1.306696
	    7 R(3,16)         =      1.486343    -0.007792    -0.002624     1.483718
	    8 R(5,8)          =      1.460282    -0.000706     0.003207     1.463489
	    9 R(7,12)         =      1.459899     0.010330     0.008591     1.468490
	   10 R(8,9)          =      1.090019    -0.002273     0.001040     1.091059
	   11 R(8,10)         =      1.091381    -0.001674    -0.000075     1.091306
	   12 R(8,11)         =      1.094318    -0.002631     0.000298     1.094615
	   13 R(12,13)        =      1.095011    -0.008592     0.012944     1.107955
	   14 R(12,14)        =      1.097729    -0.006753     0.017371     1.115101
	   15 R(12,15)        =      1.099457    -0.006674     0.020140     1.119598
	   16 R(16,17)        =      1.092309    -0.002569     0.000063     1.092372
	   17 R(16,18)        =      1.098814    -0.001551     0.000661     1.099475
	   18 R(16,19)        =      1.089999    -0.003714    -0.000486     1.089513
	   19 B(1,2,5)        =    105.587490    -0.000073    -0.291398   105.296092
	   20 B(1,7,12)       =    115.425452    -0.000284    -2.288146   113.137305
	   21 B(2,1,6)        =    112.343662    -0.000034    -0.100475   112.243188
	   22 B(2,1,7)        =    108.152944    -0.000088    -1.192939   106.960005
	   23 B(2,5,3)        =    114.162913    -0.000012    -0.243215   113.919698
	   24 B(2,5,8)        =    113.431994    -0.000047     0.134111   113.566105
	   25 B(3,5,8)        =    122.961917     0.000057     1.244233   124.206150
	   26 B(3,16,17)      =    109.192648    -0.000014    -0.184843   109.007805
	   27 B(3,16,18)      =    108.340951     0.000002     0.073304   108.414255
	   28 B(3,16,19)      =    111.743934     0.000006     0.103082   111.847016
	   29 B(4,3,5)        =    114.781010    -0.000030    -0.392336   114.388675
	   30 B(4,3,16)       =    118.306186     0.000042     0.494687   118.800873
	   31 B(5,3,16)       =    123.891340    -0.000005    -0.274064   123.617276
	   32 B(5,8,9)        =    107.738559    -0.000019    -0.297828   107.440732
	   33 B(5,8,10)       =    109.085528    -0.000026    -0.418257   108.667271
	   34 B(5,8,11)       =    108.489215    -0.000026    -0.292168   108.197048
	   35 B(6,1,7)        =    139.502899     0.000121     0.450539   139.953438
	   36 B(7,12,13)      =    108.660348    -0.000043    -1.418213   107.242135
	   37 B(7,12,14)      =    109.972809    -0.000026    -0.735149   109.237660
	   38 B(7,12,15)      =    112.999628     0.000020     0.350446   113.350075
	   39 B(9,8,10)       =    110.222592     0.000025     0.379408   110.602001
	   40 B(9,8,11)       =    110.161447     0.000020     0.237045   110.398492
	   41 B(10,8,11)      =    111.058485     0.000023     0.346023   111.404508
	   42 B(13,12,14)     =    107.504970     0.000034     1.117844   108.622814
	   43 B(13,12,15)     =    109.197149     0.000013     0.418021   109.615169
	   44 B(14,12,15)     =    108.359288     0.000004     0.315435   108.674723
	   45 B(17,16,18)     =    108.357094     0.000007     0.103458   108.460552
	   46 B(17,16,19)     =    109.615349     0.000002    -0.035106   109.580243
	   47 B(18,16,19)     =    109.520207    -0.000003    -0.058062   109.462145
	   48 D(1,2,5,3)      =    -51.826539    -0.000010    -3.993299   -55.819838
[...]
	 R(8,11)          =         2.067553	       1.094102
	 R(12,13)         =         2.064198	       1.092327
	 R(12,14)         =         2.072841	       1.096900
	 R(12,15)         =         2.074763	       1.097917
	 R(16,17)         =         2.063144	       1.091769
	 R(16,18)         =         2.075607	       1.098364
	 R(16,19)         =         2.058846	       1.089494
	 B(1,2,5)         =         1.832613	     105.001003
	 B(1,7,12)        =         1.988370	     113.925199
	 B(2,1,6)         =         1.957960	     112.182831
	 B(2,1,7)         =         1.894130	     108.525667
	 B(2,5,3)         =         1.972585	     113.020821
	 B(2,5,8)         =         1.973512	     113.073899
	 B(3,5,8)         =         2.144153	     122.850908
	 B(3,16,17)       =         1.906100	     109.211510
	 B(3,16,18)       =         1.890761	     108.332635
	 B(3,16,19)       =         1.948650	     111.649425
	 B(4,3,5)         =         2.000203	     114.603171
	 B(4,3,16)        =         2.063244	     118.215184
	 B(5,3,16)        =         2.155565	     123.504768
	 B(5,8,9)         =         1.878355	     107.621826
	 B(5,8,10)        =         1.900261	     108.876909
	 B(5,8,11)        =         1.896817	     108.679624
	 B(6,1,7)         =         2.430762	     139.272419
	 B(7,12,13)       =         1.888122	     108.181408
	 B(7,12,14)       =         1.929799	     110.569340
	 B(7,12,15)       =         1.964017	     112.529906
	 B(9,8,10)        =         1.924582	     110.270421
	 B(9,8,11)        =         1.923573	     110.212630
	 B(10,8,11)       =         1.938863	     111.088676
	 B(13,12,14)      =         1.886288	     108.076321
	 B(13,12,15)      =         1.907089	     109.268149
	 B(14,12,15)      =         1.887027	     108.118709
	 B(17,16,18)      =         1.892640	     108.440275
	 B(17,16,19)      =         1.914508	     109.693226
	 B(18,16,19)      =         1.910218	     109.447435
	 D(1,2,5,3)       =        -0.890188	     -51.003994
	 D(1,2,5,8)       =         1.644912	      94.246504
	 D(1,7,12,13)     =         2.733955	     156.644062
	 D(1,7,12,14)     =        -1.486793	     -85.186963
	 D(1,7,12,15)     =         0.625335	      35.829052
	 D(2,1,7,12)      =        -3.101267	    -177.689518
	 D(2,5,3,4)       =         2.783638	     159.490710
	 D(2,5,3,16)      =        -0.743093	     -42.576112
	 D(2,5,8,9)       =         1.022271	      58.571791
	 D(2,5,8,10)      =         3.108349	     178.095262
	 D(2,5,8,11)      =        -1.060687	     -60.772881
	 D(3,5,8,9)       =        -2.793759	    -160.070580
	 D(3,5,8,10)      =        -0.707681	     -40.547108
	 D(3,5,8,11)      =         1.406469	      80.584748
	 D(4,3,5,8)       =         0.316167	      18.115033
	 D(4,3,16,17)     =        -0.964607	     -55.267931
	 D(4,3,16,18)     =         1.093604	      62.658882
	 D(4,3,16,19)     =        -3.084896	    -176.751546
	 D(5,2,1,6)       =         0.239265	      13.708848
	 D(5,2,1,7)       =        -2.924575	    -167.565805
	 D(5,3,16,17)     =         2.575056	     147.539819
	 D(5,3,16,18)     =        -1.649919	     -94.533369
	 D(5,3,16,19)     =         0.454767	      26.056204
	 D(6,1,7,12)      =         0.008750	       0.501328
	 D(8,5,3,16)      =         3.072621	     176.048210
	 R(1,16)          =         5.690774	       3.011428
	 R(3,6)           =         3.983923	       2.108201
	 R(6,8)           =         6.017404	       3.184273
	 R(6,16)          =         4.997384	       2.644501

	Current energy   :      -455.0193494225

	Energy change for the previous step:
		Projected    :        -0.0000002356
		Actual       :        -0.0000001910

	Performing Bofill update.
	Previous computed or guess Hessian on step 1.
	Steps to be used in Hessian update: 34 33
	Taking PRFO optimization step.
	Maximizing along 1 lowest eigenvalue of Hessian.

 RFO min eigenvalues
 -0.000853 -0.000000 -0.000000 -0.000000 -0.000000 -0.000000 -0.000000 -0.000000
 -0.000000 -0.000000 -0.000000 -0.000000 -0.000000 -0.000000 -0.000000  0.000000
  0.000000  0.000000  0.000000  0.000000  0.000000  0.000000  0.000000  0.000000
  0.000000  0.000000  0.000000  0.004520  0.006945  0.010777  0.016048  0.024569
  0.030857  0.032701  0.057127  0.072213  0.073043  0.074551  0.075991  0.077098
  0.093508  0.095973  0.100744  0.153423  0.159515  0.159921  0.159989  0.160024
  0.160113  0.160214  0.160967  0.164718  0.167676  0.203379  0.212585  0.238881
  0.249939  0.253568  0.268264  0.320772  0.333054  0.344400  0.344635  0.347549
  0.350037  0.351835  0.352195  0.353517  0.353982  0.355008  0.361121  0.381006
  0.539098  0.646932  0.808072  0.815140

 RFO max eigenvalues
 -0.015049  0.000000
	Change in coordinate exceeds step limit of    0.50000.
	Scaling displacements by    0.50000
	|RFO target step|  :        0.5000000000
	RFO gradient       :       -0.0000012690
	RFO hessian        :       -0.0008532916
	Projected Delta(E) :       -0.0000858368

	Back-transformation to cartesian coordinates...
	Could not converge backtransformation.
	Using first guess instead.

	--- Internal Coordinate Step in ANG or DEG, aJ/ANG or AJ/DEG ---
	 ---------------------------------------------------------------------------
	   Coordinate                Previous        Force       Change         New 
	   ----------                --------       ------       ------       ------
	    1 R(1,2)          =      1.571550    -0.000215    -0.002602     1.568948
	    2 R(1,6)          =      1.271543     0.000011     0.000199     1.271742
	    3 R(1,7)          =      1.276346     0.000200     0.000430     1.276776
	    4 R(2,5)          =      1.366553    -0.000040     0.000520     1.367073
	    5 R(3,4)          =      1.090017    -0.000008     0.000145     1.090162
	    6 R(3,5)          =      1.314218    -0.000049     0.000399     1.314618
	    7 R(3,16)         =      1.486936     0.000037     0.000121     1.487057
	    8 R(5,8)          =      1.461285     0.000089    -0.000034     1.461251
	    9 R(7,12)         =      1.465876     0.000049     0.000800     1.466676
	   10 R(8,9)          =      1.089520    -0.000007     0.000142     1.089662
	   11 R(8,10)         =      1.091256     0.000009     0.000058     1.091314
	   12 R(8,11)         =      1.094102     0.000014     0.000074     1.094176
	   13 R(12,13)        =      1.092327    -0.000015     0.035048     1.127375
	   14 R(12,14)        =      1.096900    -0.000002     0.041040     1.137940
	   15 R(12,15)        =      1.097917     0.000014     0.035742     1.133659
	   16 R(16,17)        =      1.091769     0.000008     0.000069     1.091838
	   17 R(16,18)        =      1.098364     0.000018     0.000064     1.098427
	   18 R(16,19)        =      1.089494    -0.000005     0.000154     1.089649
	   19 B(1,2,5)        =    105.001003     0.000001    -0.039950   104.961053
	   20 B(1,7,12)       =    113.925199     0.000001    -0.783086   113.142113
	   21 B(2,1,6)        =    112.182831     0.000000     0.167704   112.350535
	   22 B(2,1,7)        =    108.525667     0.000001     0.222107   108.747774
	   23 B(2,5,3)        =    113.020821    -0.000001     0.070458   113.091279
	   24 B(2,5,8)        =    113.073899     0.000000    -0.050538   113.023361
	   25 B(3,5,8)        =    122.850908     0.000001    -0.021797   122.829111
	   26 B(3,16,17)      =    109.211510     0.000000    -0.012524   109.198986
	   27 B(3,16,18)      =    108.332635     0.000000    -0.007826   108.324810
	   28 B(3,16,19)      =    111.649425     0.000000     0.000627   111.650052
	   29 B(4,3,5)        =    114.603171    -0.000000    -0.016985   114.586186
	   30 B(4,3,16)       =    118.215184    -0.000000    -0.011809   118.203375
	   31 B(5,3,16)       =    123.504768     0.000001    -0.019746   123.485021
	   32 B(5,8,9)        =    107.621826     0.000000    -0.007828   107.613999
	   33 B(5,8,10)       =    108.876909     0.000000    -0.041299   108.835609
	   34 B(5,8,11)       =    108.679624     0.000000     0.002782   108.682405
	   35 B(6,1,7)        =    139.272419    -0.000001    -0.389043   138.883376
	   36 B(7,12,13)      =    108.181408     0.000000    -0.690053   107.491356
	   37 B(7,12,14)      =    110.569340     0.000001     0.198093   110.767433
	   38 B(7,12,15)      =    112.529906     0.000001    -1.429748   111.100158
	   39 B(9,8,10)       =    110.270421    -0.000000     0.025604   110.296025
	   40 B(9,8,11)       =    110.212630    -0.000000     0.014070   110.226700
	   41 B(10,8,11)      =    111.088676    -0.000000     0.005104   111.093780
	   42 B(13,12,14)     =    108.076321    -0.000001     0.971446   109.047766
	   43 B(13,12,15)     =    109.268149    -0.000000     0.675210   109.943359
	   44 B(14,12,15)     =    108.118709    -0.000001     0.351610   108.470319
	   45 B(17,16,18)     =    108.440275    -0.000000    -0.004186   108.436090
	   46 B(17,16,19)     =    109.693226    -0.000000     0.012338   109.705564
	   47 B(18,16,19)     =    109.447435    -0.000000     0.011120   109.458555
	   48 D(1,2,5,3)      =    -51.003994    -0.000000     0.063286   -50.940708
	   49 D(1,2,5,8)      =     94.246504    -0.000000     0.052428    94.298932
	   50 D(1,7,12,13)    =    156.644062     0.000000    15.644496   172.288558
	   51 D(1,7,12,14)    =    -85.186963    -0.000000    16.517985   -68.668978
	   52 D(1,7,12,15)    =     35.829052     0.000000    16.132887    51.961939
	   53 D(2,1,7,12)     =   -177.689518     0.000000    -0.044681  -177.734199
	   54 D(2,5,3,4)      =    159.490710    -0.000000     0.051229   159.541939
	   55 D(2,5,3,16)     =    -42.576112     0.000000    -0.090232   -42.666344
	   56 D(2,5,8,9)      =     58.571791     0.000000    -0.001588    58.570203
	   57 D(2,5,8,10)     =    178.095262     0.000000     0.001473   178.096735
	   58 D(2,5,8,11)     =    -60.772881     0.000000    -0.015473   -60.788354
	   59 D(3,5,8,9)      =   -160.070580    -0.000000     0.021116  -160.049464
	   60 D(3,5,8,10)     =    -40.547108    -0.000000     0.024176   -40.522932
	   61 D(3,5,8,11)     =     80.584748    -0.000000     0.007231    80.591979
	   62 D(4,3,5,8)      =     18.115033    -0.000000     0.069678    18.184711
	   63 D(4,3,16,17)    =    -55.267931     0.000000    -0.173566   -55.441497
	   64 D(4,3,16,18)    =     62.658882     0.000000    -0.190045    62.468837
	   65 D(4,3,16,19)    =   -176.751546     0.000000    -0.180992  -176.932538
	   66 D(5,2,1,6)      =     13.708848     0.000000     0.127107    13.835956
	   67 D(5,2,1,7)      =   -167.565805    -0.000000     0.146541  -167.419264
	   68 D(5,3,16,17)    =    147.539819    -0.000000    -0.026207   147.513612
	   69 D(5,3,16,18)    =    -94.533369    -0.000000    -0.042686   -94.576054
	   70 D(5,3,16,19)    =     26.056204    -0.000000    -0.033633    26.022571
	   71 D(6,1,7,12)     =      0.501328    -0.000000    -0.001072     0.500256
	   72 D(8,5,3,16)     =    176.048210     0.000000    -0.071783   175.976427
	   73 R(1,16)         =      3.011428    -0.000072     0.000686     3.012114
	   74 R(3,6)          =      2.108201    -0.000011    -0.000052     2.108149
	   75 R(6,8)          =      3.184273     0.000043     0.002171     3.186445
	   76 R(6,16)         =      2.644501     0.000078    -0.000970     2.643531
	 ---------------------------------------------------------------------------
	Successfully symmetrized geometry.

  ==> Convergence Check <==

  Measures of convergence in internal coordinates in au.
  Criteria marked as inactive (o), active & met (*), and active & unmet ( ).
  ---------------------------------------------------------------------------------------------
   Step     Total Energy     Delta E     MAX Force     RMS Force      MAX Disp      RMS Disp   
  ---------------------------------------------------------------------------------------------
    Convergence Criteria    1.00e-06 *    3.00e-04 *             o    1.20e-03 *             o
  ---------------------------------------------------------------------------------------------
     35    -455.01934942   -1.91e-07 *    2.61e-05 *    7.35e-06 o    2.88e-01      5.78e-02 o  ~
  ---------------------------------------------------------------------------------------------


  **** Optimization is complete! (in 35 steps) ****

  ==> Optimization Summary <==

  Measures of convergence in internal coordinates in au.
  --------------------------------------------------------------------------------------------------------------- ~
   Step         Total Energy             Delta E       MAX Force       RMS Force        MAX Disp        RMS Disp  ~
  --------------------------------------------------------------------------------------------------------------- ~
      1    -455.017162435150   -455.017162435150      0.02871272      0.00527490      0.06452738      0.01699806  ~
      2    -455.019239764325     -0.002077329175      0.00501102      0.00096325      0.18235629      0.05337318  ~
      3    -455.017799717703      0.001440046622      0.01364603      0.00341883      0.24956190      0.05708490  ~
      4    -455.016584791477      0.001214926225      0.02312832      0.00474380      0.07153398      0.02352044  ~
      5    -455.019672931659     -0.003088140182      0.00561009      0.00137874      0.28467269      0.05744977  ~
      6    -455.019473859269      0.000199072390      0.00474231      0.00151828      0.27768923      0.05774013  ~
      7    -455.017236792905      0.002237066364      0.02420541      0.00487000      0.27551745      0.05689905  ~
      8    -455.017604444989     -0.000367652084      0.02545673      0.00513660      0.25204202      0.05665228  ~
      9    -455.015523677730      0.002080767259      0.02927434      0.00574808      0.22022410      0.05748661  ~
     10    -455.018972779160     -0.003449101430      0.00688456      0.00176869      0.10523578      0.02936668  ~
     11    -455.019104680517     -0.000131901357      0.00558798      0.00114138      0.24638378      0.05744290  ~
     12    -455.018531443096      0.000573237420      0.01012132      0.00192502      0.10714829      0.03148791  ~
     13    -455.019161668929     -0.000630225833      0.00208098      0.00051697      0.28437754      0.05759091  ~
     14    -455.017196147166      0.001965521763      0.02192067      0.00414722      0.07526257      0.02177484  ~
     15    -455.019294523668     -0.002098376502      0.00135168      0.00047343      0.28594747      0.05750228  ~
     16    -455.017482375775      0.001812147893      0.02069439      0.00388460      0.06419520      0.01288925  ~
     17    -455.019317155396     -0.001834779621      0.00118136      0.00026599      0.15080938      0.02964029  ~
     18    -455.019141828393      0.000175327003      0.00715097      0.00135386      0.04038065      0.00898230  ~
     19    -455.019346855105     -0.000205026712      0.00062045      0.00011739      0.02921861      0.00565585  ~
     20    -455.019348752154     -0.000001897050      0.00028369      0.00006921      0.28431532      0.05790588  ~
     21    -455.016292142600      0.003056609555      0.02520431      0.00487208      0.07137545      0.01982736  ~
     22    -455.019253323414     -0.002961180814      0.00376555      0.00070804      0.15525761      0.03055289  ~
     23    -455.019083904588      0.000169418826      0.00794950      0.00152167      0.06518485      0.01343072  ~
     24    -455.019347360482     -0.000263455894      0.00057314      0.00012460      0.01443435      0.00291097  ~
     25    -455.019349235119     -0.000001874637      0.00009368      0.00002677      0.28749541      0.05773412  ~
     26    -455.016774446322      0.002574788798      0.02334839      0.00449265      0.06792012      0.01729869  ~
     27    -455.019285488786     -0.002511042465      0.00221052      0.00040173      0.19645116      0.03880934  ~
     28    -455.018744364302      0.000541124484      0.01187130      0.00228324      0.05899428      0.01315877  ~
     29    -455.019347922579     -0.000603558277      0.00040644      0.00010124      0.02398054      0.00466916  ~
     30    -455.019349163857     -0.000001241278      0.00018368      0.00004266      0.28520941      0.05788088  ~
     31    -455.016442310535      0.002906853321      0.02516091      0.00476451      0.07377616      0.01950557  ~
     32    -455.019264473846     -0.002822163311      0.00339062      0.00064218      0.16088455      0.03139901  ~
     33    -455.019114495112      0.000149978734      0.00759036      0.00143633      0.05395571      0.01139104  ~
     34    -455.019349231463     -0.000234736351      0.00013273      0.00003709      0.00917531      0.00187704  ~
     35    -455.019349422457     -0.000000190994      0.00002612      0.00000735      0.28829323      0.05775649  ~
  --------------------------------------------------------------------------------------------------------------- ~

	Writing optimization data to binary file.
	Final energy is   -455.0193494224569
	Final (previous) structure:
	Cartesian Geometry (in Angstrom)
	    C     0.8115803365  -0.1246341816  -0.2605100864
	    O    -0.3644714950   0.7679715694  -0.7989595716
	    C    -1.5683023749  -0.3333628358   0.7298173457
	    H    -1.9753222863  -0.3070974633   1.7406494042
	    N    -1.2538308221   0.8431925498   0.2358587822
	    O     0.4998258106  -0.7343441443   0.8108831574
	    N     1.7954526326  -0.0294138442  -1.0679680235
	    C    -1.0631609882   2.0278237875   1.0699135153
	    H    -1.1679833939   2.9027194848   0.4291145010
	    H    -1.8262133659   2.0369345092   1.8499830079
	    H    -0.0586457870   1.9940403247   1.5021943321
	    C     2.9455151855  -0.8625358466  -0.7045727267
	    H     3.5312430819  -1.0476575581  -1.6078061230
	    H     3.5870292766  -0.3407166226   0.0160893904
	    H     2.6468809754  -1.8225075074  -0.2633304639
	    C    -1.8486733139  -1.5278900944  -0.1101080229
	    H    -1.5215071658  -2.4245529923   0.4199077303
	    H    -2.9338804637  -1.5932594774  -0.2664890001
	    H    -1.3461280673  -1.4677869691  -1.0749054303
	Saving final (previous) structure.
	Removing binary optimization data file.
			--------------------------
			 OPTKING Finished Execution 
			--------------------------

    Final optimized geometry and variables:
    Molecular point group: c1
    Full point group: C1

    Geometry (in Angstrom), charge = 0, multiplicity = 1:

    C            0.811580336497    -0.124634181555    -0.260510086364
    O           -0.364471495023     0.767971569374    -0.798959571635
    C           -1.568302374920    -0.333362835762     0.729817345686
    H           -1.975322286299    -0.307097463287     1.740649404246
    N           -1.253830822057     0.843192549785     0.235858782153
    O            0.499825810587    -0.734344144268     0.810883157421
    N            1.795452632562    -0.029413844184    -1.067968023524
    C           -1.063160988176     2.027823787532     1.069913515338
    H           -1.167983393922     2.902719484811     0.429114500978
    H           -1.826213365913     2.036934509191     1.849983007916
    H           -0.058645787040     1.994040324688     1.502194332139
    C            2.945515185481    -0.862535846558    -0.704572726705
    H            3.531243081885    -1.047657558084    -1.607806122951
    H            3.587029276640    -0.340716622580     0.016089390371
    H            2.646880975375    -1.822507507368    -0.263330463882
    C           -1.848673313920    -1.527890094426    -0.110108022860
    H           -1.521507165763    -2.424552992305     0.419907730297
    H           -2.933880463659    -1.593259477446    -0.266489000101
    H           -1.346128067338    -1.467786969069    -1.074905430339

	Removing binary optimization data file.
	Cleaning optimization helper files.

    Psi4 stopped on: Tuesday, 15 January 2019 09:18AM
    Psi4 wall time for execution: 0:29:57.39

*** Psi4 exiting successfully. Buy a developer a beer!
