
    -----------------------------------------------------------------------
          Psi4: An Open-Source Ab Initio Electronic Structure Package
                               Psi4 1.2.1 release

                         Git: Rev {HEAD} 406f4de 


    R. M. Parrish, L. A. Burns, D. G. A. Smith, A. C. Simmonett,
    A. E. DePrince III, E. G. Hohenstein, U. Bozkaya, A. Yu. Sokolov,
    R. Di Remigio, R. M. Richard, J. F. Gonthier, A. M. James,
    H. R. McAlexander, A. Kumar, M. Saitow, X. Wang, B. P. Pritchard,
    P. Verma, H. F. Schaefer III, K. Patkowski, R. A. King, E. F. Valeev,
    F. A. Evangelista, J. M. Turney, T. D. Crawford, and C. D. Sherrill,
    J. Chem. Theory Comput. 13(7) pp 3185--3197 (2017).
    (doi: 10.1021/acs.jctc.7b00174)


                         Additional Contributions by
    P. Kraus, H. Kruse, M. H. Lechner, M. C. Schieber, and R. A. Shaw

    -----------------------------------------------------------------------


    Psi4 started on: Tuesday, 19 March 2019 12:49PM

    Process ID: 8863
    Host:       localhost.localdomain
    PSIDATADIR: /root/psi4conda/share/psi4
    Memory:     500.0 MiB
    Threads:    1
    
  ==> Input File <==

--------------------------------------------------------------------------
molecule{
0 1
 C    0.003916906300   -0.495535423415    0.087199216619
 O   -1.070251505374   -0.830860076314   -0.756316519180
 H    0.663518532178   -0.725094961812    2.118235598461
 H   -1.065197551471   -0.388052115686    1.943518160060
 H    1.063523795999    2.433181673153   -0.907939247508
 C    1.158070316780    1.349923124039   -0.851553443293
 H    0.969086422558    0.921532725810   -1.840785812053
 H    2.175348219966    1.096934691367   -0.532236698697
 O    0.213028001525    0.892773635353    0.095502956123
 H   -1.830192523358   -0.317420862115   -0.467502455049
 C   -0.221724824326   -0.937637322916    1.517750611350
 H   -0.437151885709   -2.005796076663    1.550452363744
 H    0.870280768005   -1.006659194950   -0.346712805908 
}

set{
   basis 6-311++G(d,p)
   freeze_core True
}


set_num_threads(32)
optimize('m06-2x')
--------------------------------------------------------------------------
  Threads set to 32 by Python driver.
gradient() will perform analytic gradient computation.

*** tstart() called on localhost.localdomain
*** at Tue Mar 19 12:49:04 2019

   => Loading Basis Set <=

    Name: 6-311++G(D,P)
    Role: ORBITAL
    Keyword: BASIS
    atoms 1, 6, 11            entry C          line   119 file /root/psi4conda/share/psi4/basis/6-311ppg_d_p_.gbs 
    atoms 2, 9                entry O          line   161 file /root/psi4conda/share/psi4/basis/6-311ppg_d_p_.gbs 
    atoms 3-5, 7-8, 10, 12-13 entry H          line    42 file /root/psi4conda/share/psi4/basis/6-311ppg_d_p_.gbs 


         ---------------------------------------------------------
                                   SCF
            by Justin Turney, Rob Parrish, Andy Simmonett
                             and Daniel Smith
                              RKS Reference
                       32 Threads,    500 MiB Core
         ---------------------------------------------------------

  ==> Geometry <==

    Molecular point group: c1
    Full point group: C1

    Geometry (in Angstrom), charge = 0, multiplicity = 1:

       Center              X                  Y                   Z               Mass       
    ------------   -----------------  -----------------  -----------------  -----------------
         C            0.003916906300    -0.495535423415     0.087199216619    12.000000000000
         O           -1.070251505374    -0.830860076314    -0.756316519180    15.994914619560
         H            0.663518532178    -0.725094961812     2.118235598461     1.007825032070
         H           -1.065197551471    -0.388052115686     1.943518160060     1.007825032070
         H            1.063523795999     2.433181673153    -0.907939247508     1.007825032070
         C            1.158070316780     1.349923124039    -0.851553443293    12.000000000000
         H            0.969086422558     0.921532725810    -1.840785812053     1.007825032070
         H            2.175348219966     1.096934691367    -0.532236698697     1.007825032070
         O            0.213028001525     0.892773635353     0.095502956123    15.994914619560
         H           -1.830192523358    -0.317420862115    -0.467502455049     1.007825032070
         C           -0.221724824326    -0.937637322916     1.517750611350    12.000000000000
         H           -0.437151885709    -2.005796076663     1.550452363744     1.007825032070
         H            0.870280768005    -1.006659194950    -0.346712805908     1.007825032070

  Running in c1 symmetry.

  Rotational constants: A =      0.27107  B =      0.12818  C =      0.09794 [cm^-1]
  Rotational constants: A =   8126.39080  B =   3842.76045  C =   2936.29488 [MHz]
  Nuclear repulsion =  197.782370977552489

  Charge       = 0
  Multiplicity = 1
  Electrons    = 42
  Nalpha       = 21
  Nbeta        = 21

  ==> Algorithm <==

  SCF Algorithm Type is DF.
  DIIS enabled.
  MOM disabled.
  Fractional occupation disabled.
  Guess Type is SAD.
  Energy threshold   = 1.00e-08
  Density threshold  = 1.00e-08
  Integral threshold = 0.00e+00

  ==> Primary Basis <==

  Basis Set: 6-311++G(D,P)
    Blend: 6-311++G(D,P)
    Number of shells: 90
    Number of basis function: 166
    Number of Cartesian functions: 171
    Spherical Harmonics?: true
    Max angular momentum: 2

  ==> DFT Potential <==

   => Composite Functional: M06-2X <= 

    Hybrid M06-2X Meta-GGA XC Functional

    Y. Zhao and D. G. Truhlar,  Theor. Chem. Acc., 120, 215, 2008


    Deriv               =              1
    GGA                 =           TRUE
    Meta                =           TRUE

    Exchange Hybrid     =           TRUE
    MP2 Hybrid          =          FALSE

   => Exchange Functionals <=

    1.0000   XC_HYB_MGGA_X_M06_2X

   => Exact (HF) Exchange <=

    0.5400               HF 

   => Correlation Functionals <=

    1.0000   XC_MGGA_C_M06_2X

   => Molecular Quadrature <=

    Radial Scheme       =       TREUTLER
    Pruning Scheme      =           FLAT
    Nuclear Scheme      =       TREUTLER

    BS radius alpha     =              1
    Pruning alpha       =              1
    Radial Points       =             75
    Spherical Points    =            302
    Total Points        =         294450
    Total Blocks        =           2254
    Max Points          =            256
    Max Functions       =            166

   => Loading Basis Set <=

    Name: (6-311++G(D,P) AUX)
    Role: JKFIT
    Keyword: DF_BASIS_SCF
    atoms 1, 6, 11            entry C          line   162 file /root/psi4conda/share/psi4/basis/aug-cc-pvtz-jkfit.gbs 
    atoms 2, 9                entry O          line   286 file /root/psi4conda/share/psi4/basis/aug-cc-pvtz-jkfit.gbs 
    atoms 3-5, 7-8, 10, 12-13 entry H          line    70 file /root/psi4conda/share/psi4/basis/aug-cc-pvtz-jkfit.gbs 

  ==> Pre-Iterations <==

   -------------------------------------------------------
    Irrep   Nso     Nmo     Nalpha   Nbeta   Ndocc  Nsocc
   -------------------------------------------------------
     A        166     166       0       0       0       0
   -------------------------------------------------------
    Total     166     166      21      21      21       0
   -------------------------------------------------------

  ==> Integral Setup <==

  DFHelper Memory: AOs need 0.238 [GiB]; user supplied 0.366 [GiB]. Using in-core AOs.

  ==> MemDFJK: Density-Fitted J/K Matrices <==

    J tasked:                   Yes
    K tasked:                   Yes
    wK tasked:                   No
    OpenMP threads:              32
    Memory (MB):                375
    Algorithm:                 Core
    Schwarz Cutoff:           1E-12
    Mask sparsity (%):       2.0032
    Fitting Condition:        1E-12

   => Auxiliary Basis Set <=

  Basis Set: (6-311++G(D,P) AUX)
    Blend: AUG-CC-PVTZ-JKFIT
    Number of shells: 262
    Number of basis function: 888
    Number of Cartesian functions: 1095
    Spherical Harmonics?: true
    Max angular momentum: 4

  Minimum eigenvalue in the overlap matrix is 6.2444799651E-05.
  Using Symmetric Orthogonalization.

  SCF Guess: Superposition of Atomic Densities via on-the-fly atomic UHF.

  ==> Iterations <==

                           Total Energy        Delta E     RMS |[F,P]|

   @DF-RKS iter   0:  -270.73296070989198   -2.70733e+02   9.02186e-02 
   @DF-RKS iter   1:  -269.43162713285619    1.30133e+00   1.23439e-02 
   @DF-RKS iter   2:  -269.45964692052826   -2.80198e-02   1.60423e-02 DIIS
   @DF-RKS iter   3:  -269.53226635753634   -7.26194e-02   2.17084e-03 DIIS
   @DF-RKS iter   4:  -269.53377194401935   -1.50559e-03   7.58898e-04 DIIS
   @DF-RKS iter   5:  -269.53400247237340   -2.30528e-04   1.87334e-04 DIIS
   @DF-RKS iter   6:  -269.53402639399707   -2.39216e-05   7.62891e-05 DIIS
   @DF-RKS iter   7:  -269.53402896358551   -2.56959e-06   1.34576e-05 DIIS
   @DF-RKS iter   8:  -269.53402922466665   -2.61081e-07   1.94139e-06 DIIS
   @DF-RKS iter   9:  -269.53402923649526   -1.18286e-08   8.93207e-07 DIIS
   @DF-RKS iter  10:  -269.53402923791737   -1.42211e-09   1.89743e-07 DIIS
   @DF-RKS iter  11:  -269.53402923801900   -1.01636e-10   3.40986e-08 DIIS
   @DF-RKS iter  12:  -269.53402923802338   -4.37694e-12   1.79315e-08 DIIS
   @DF-RKS iter  13:  -269.53402923802361   -2.27374e-13   3.49444e-09 DIIS

  ==> Post-Iterations <==

    Orbital Energies [Eh]
    ---------------------

    Doubly Occupied:                                                      

       1A    -19.629762     2A    -19.624939     3A    -10.639892  
       4A    -10.581800     5A    -10.529148     6A     -1.196860  
       7A     -1.127009     8A     -0.857523     9A     -0.778002  
      10A     -0.712191    11A     -0.603336    12A     -0.574445  
      13A     -0.547941    14A     -0.507946    15A     -0.497318  
      16A     -0.457706    17A     -0.455418    18A     -0.438968  
      19A     -0.392017    20A     -0.366837    21A     -0.346199  

    Virtual:                                                              

      22A     -0.000682    23A      0.010831    24A      0.016643  
      25A      0.025150    26A      0.040448    27A      0.046616  
      28A      0.050315    29A      0.053452    30A      0.076229  
      31A      0.085796    32A      0.099910    33A      0.108023  
      34A      0.119201    35A      0.123259    36A      0.128536  
      37A      0.132873    38A      0.144798    39A      0.146542  
      40A      0.162395    41A      0.171610    42A      0.204115  
      43A      0.211076    44A      0.216284    45A      0.220254  
      46A      0.229918    47A      0.237821    48A      0.247880  
      49A      0.257838    50A      0.285559    51A      0.289874  
      52A      0.297944    53A      0.304364    54A      0.308548  
      55A      0.332008    56A      0.348549    57A      0.361551  
      58A      0.370884    59A      0.382303    60A      0.401818  
      61A      0.417432    62A      0.474236    63A      0.485120  
      64A      0.502495    65A      0.515430    66A      0.584349  
      67A      0.605709    68A      0.626035    69A      0.635506  
      70A      0.660173    71A      0.679488    72A      0.696458  
      73A      0.697907    74A      0.707317    75A      0.734744  
      76A      0.737141    77A      0.757885    78A      0.774723  
      79A      0.910904    80A      0.950199    81A      1.014351  
      82A      1.024858    83A      1.071480    84A      1.113254  
      85A      1.134183    86A      1.182186    87A      1.241405  
      88A      1.261065    89A      1.291432    90A      1.324525  
      91A      1.358656    92A      1.404978    93A      1.466259  
      94A      1.501372    95A      1.509920    96A      1.511596  
      97A      1.563126    98A      1.582751    99A      1.593886  
     100A      1.610382   101A      1.620785   102A      1.653257  
     103A      1.678542   104A      1.714670   105A      1.734112  
     106A      1.749488   107A      1.779935   108A      1.787598  
     109A      1.840644   110A      1.845753   111A      1.912040  
     112A      1.933512   113A      2.018277   114A      2.031912  
     115A      2.087147   116A      2.123593   117A      2.167321  
     118A      2.201311   119A      2.226150   120A      2.319423  
     121A      2.335297   122A      2.463464   123A      2.506528  
     124A      2.545125   125A      2.547383   126A      2.575439  
     127A      2.577675   128A      2.598459   129A      2.608581  
     130A      2.618286   131A      2.651971   132A      2.657998  
     133A      2.690099   134A      2.768252   135A      2.863601  
     136A      2.905992   137A      2.981765   138A      3.038490  
     139A      3.108794   140A      3.139347   141A      3.185077  
     142A      3.212100   143A      3.272935   144A      3.345301  
     145A      3.375100   146A      3.522476   147A      3.801429  
     148A      3.838578   149A      3.856488   150A      3.868611  
     151A      3.903242   152A      4.043735   153A      4.093623  
     154A      4.181485   155A      4.294681   156A      5.226272  
     157A      5.227318   158A      5.444419   159A      5.545114  
     160A      5.698216   161A      5.867635   162A     23.836201  
     163A     24.004987   164A     24.048967   165A     50.022594  
     166A     50.050420  

    Final Occupation by Irrep:
              A 
    DOCC [    21 ]

  Energy converged.

  @DF-RKS Final Energy:  -269.53402923802361

   => Energetics <=

    Nuclear Repulsion Energy =            197.7823709775524890
    One-Electron Energy =                -758.4399933967558809
    Two-Electron Energy =                 308.6759461347812135
    DFT Exchange-Correlation Energy =     -17.5523529536014991
    Empirical Dispersion Energy =           0.0000000000000000
    VV10 Nonlocal Energy =                  0.0000000000000000
    Total Energy =                       -269.5340292380236065



Properties will be evaluated at   0.000000,   0.000000,   0.000000 [a0]

Properties computed using the SCF density matrix

  Nuclear Dipole Moment: [e a0]
     X:     2.2544      Y:     0.0084      Z:     1.4190

  Electronic Dipole Moment: [e a0]
     X:    -1.9542      Y:     0.1301      Z:    -1.2339

  Dipole Moment: [e a0]
     X:     0.3003      Y:     0.1384      Z:     0.1851     Total:     0.3789

  Dipole Moment: [D]
     X:     0.7632      Y:     0.3519      Z:     0.4705     Total:     0.9631


*** tstop() called on localhost.localdomain at Tue Mar 19 12:49:18 2019
Module time:
	user time   =     328.68 seconds =       5.48 minutes
	system time =      17.69 seconds =       0.29 minutes
	total time  =         14 seconds =       0.23 minutes
Total time:
	user time   =     328.68 seconds =       5.48 minutes
	system time =      17.69 seconds =       0.29 minutes
	total time  =         14 seconds =       0.23 minutes

*** tstart() called on localhost.localdomain
*** at Tue Mar 19 12:49:18 2019


         ------------------------------------------------------------
                                   SCF GRAD                          
                          Rob Parrish, Justin Turney,                
                       Andy Simmonett, and Alex Sokolov              
         ------------------------------------------------------------

  ==> Geometry <==

    Molecular point group: c1
    Full point group: C1

    Geometry (in Angstrom), charge = 0, multiplicity = 1:

       Center              X                  Y                   Z               Mass       
    ------------   -----------------  -----------------  -----------------  -----------------
         C            0.003916906300    -0.495535423415     0.087199216619    12.000000000000
         O           -1.070251505374    -0.830860076314    -0.756316519180    15.994914619560
         H            0.663518532178    -0.725094961812     2.118235598461     1.007825032070
         H           -1.065197551471    -0.388052115686     1.943518160060     1.007825032070
         H            1.063523795999     2.433181673153    -0.907939247508     1.007825032070
         C            1.158070316780     1.349923124039    -0.851553443293    12.000000000000
         H            0.969086422558     0.921532725810    -1.840785812053     1.007825032070
         H            2.175348219966     1.096934691367    -0.532236698697     1.007825032070
         O            0.213028001525     0.892773635353     0.095502956123    15.994914619560
         H           -1.830192523358    -0.317420862115    -0.467502455049     1.007825032070
         C           -0.221724824326    -0.937637322916     1.517750611350    12.000000000000
         H           -0.437151885709    -2.005796076663     1.550452363744     1.007825032070
         H            0.870280768005    -1.006659194950    -0.346712805908     1.007825032070

  Nuclear repulsion =  197.782370977552489

  ==> Basis Set <==

  Basis Set: 6-311++G(D,P)
    Blend: 6-311++G(D,P)
    Number of shells: 90
    Number of basis function: 166
    Number of Cartesian functions: 171
    Spherical Harmonics?: true
    Max angular momentum: 2

  ==> DFJKGrad: Density-Fitted SCF Gradients <==

    Gradient:                    1
    J tasked:                  Yes
    K tasked:                  Yes
    wK tasked:                  No
    OpenMP threads:             32
    Integrals threads:          32
    Memory (MB):               375
    Schwarz Cutoff:          0E+00
    Fitting Condition:       1E-12

   => Auxiliary Basis Set <=

  Basis Set: (6-311++G(D,P) AUX)
    Blend: AUG-CC-PVTZ-JKFIT
    Number of shells: 262
    Number of basis function: 888
    Number of Cartesian functions: 1095
    Spherical Harmonics?: true
    Max angular momentum: 4

  ==> DFT Potential <==

   => Composite Functional: M06-2X <= 

    Hybrid M06-2X Meta-GGA XC Functional

    Y. Zhao and D. G. Truhlar,  Theor. Chem. Acc., 120, 215, 2008


    Deriv               =              1
    GGA                 =           TRUE
    Meta                =           TRUE

    Exchange Hybrid     =           TRUE
    MP2 Hybrid          =          FALSE

   => Exchange Functionals <=

    1.0000   XC_HYB_MGGA_X_M06_2X

   => Exact (HF) Exchange <=

    0.5400               HF 

   => Correlation Functionals <=

    1.0000   XC_MGGA_C_M06_2X

   => Molecular Quadrature <=

    Radial Scheme       =       TREUTLER
    Pruning Scheme      =           FLAT
    Nuclear Scheme      =       TREUTLER

    BS radius alpha     =              1
    Pruning alpha       =              1
    Radial Points       =             75
    Spherical Points    =            302
    Total Points        =         294450
    Total Blocks        =           2254
    Max Points          =            256
    Max Functions       =            166


  -Total Gradient:
     Atom            X                  Y                   Z
    ------   -----------------  -----------------  -----------------
       1       -0.000459709159    -0.000033639491    -0.000480900679
       2       -0.002962212766     0.000183064907     0.001420416980
       3        0.000156653140     0.000027307720    -0.000093548852
       4        0.000121924557    -0.000021393380     0.000053301551
       5       -0.000100444126    -0.000019984882    -0.000163513349
       6        0.001447638366     0.000152664376     0.001354898846
       7        0.000566955617    -0.000245362737     0.000139243428
       8        0.000067712954     0.000314136308     0.000524306483
       9       -0.001765146417     0.000175217648    -0.001902998974
      10        0.001299183533    -0.000529279802    -0.000601351497
      11        0.001249168040     0.000030411645    -0.000196775475
      12        0.000137250613    -0.000003573644     0.000004074896
      13       -0.000038403645     0.000004369264    -0.000112127865


*** tstop() called on localhost.localdomain at Tue Mar 19 12:49:23 2019
Module time:
	user time   =      94.96 seconds =       1.58 minutes
	system time =       5.85 seconds =       0.10 minutes
	total time  =          5 seconds =       0.08 minutes
Total time:
	user time   =     423.70 seconds =       7.06 minutes
	system time =      23.54 seconds =       0.39 minutes
	total time  =         19 seconds =       0.32 minutes

			-----------------------------------------
			 OPTKING 2.0: for geometry optimizations 
			  - R.A. King,  Bethel University        
			-----------------------------------------

	Internal coordinates to be generated automatically.
	Detected frag 1 with atoms:  1 2 3 4 5 6 7 8 9 10 11 12 13
	---Fragment 1 Bond Connectivity---
	 1 : 2 9 11 13
	 2 : 1 10
	 3 : 11
	 4 : 11
	 5 : 6
	 6 : 5 7 8 9
	 7 : 6
	 8 : 6
	 9 : 1 6
	 10 : 2
	 11 : 1 3 4 12
	 12 : 11
	 13 : 1

	---Fragment 1 Geometry and Gradient---
	 C           0.0074018802       -0.9364262394        0.1647826384
	 O          -2.0224822385       -1.5700979990       -1.4292310910
	 H           1.2538683099       -1.3702308982        4.0028851660
	 H          -2.0129316497       -0.7333122239        3.6727170568
	 H           2.0097687102        4.5980469938       -1.7157565231
	 C           2.1884357413        2.5509850049       -1.6092027953
	 H           1.8313079377        1.7414444743       -3.4785810541
	 H           4.1108123794        2.0729061523       -1.0057815984
	 O           0.4025645815        1.6870976695        0.1804744320
	 H          -3.4585626396       -0.5998384983       -0.8834516065
	 C          -0.4189991948       -1.7718777523        2.8681329935
	 H          -0.8260973425       -3.7904052633        2.9299303496
	 H           1.6445923102       -1.9023101876       -0.6551922499
	            -0.0004597092       -0.0000336395       -0.0004809007
	            -0.0029622128        0.0001830649        0.0014204170
	             0.0001566531        0.0000273077       -0.0000935489
	             0.0001219246       -0.0000213934        0.0000533016
	            -0.0001004441       -0.0000199849       -0.0001635133
	             0.0014476384        0.0001526644        0.0013548988
	             0.0005669556       -0.0002453627        0.0001392434
	             0.0000677130        0.0003141363        0.0005243065
	            -0.0017651464        0.0001752176       -0.0019029990
	             0.0012991835       -0.0005292798       -0.0006013515
	             0.0012491680        0.0000304116       -0.0001967755
	             0.0001372506       -0.0000035736        0.0000040749
	            -0.0000384036        0.0000043693       -0.0001121279

	Previous optimization step data not found.  Starting new optimization.

	---Fragment 1 Intrafragment Coordinates---
	 - Coordinate -           - BOHR/RAD -       - ANG/DEG -
	 R(1,2)           =         2.657602	       1.406342
	 R(1,9)           =         2.653164	       1.403994
	 R(1,11)          =         2.861451	       1.514215
	 R(1,13)          =         2.070189	       1.095497
	 R(2,10)          =         1.817032	       0.961532
	 R(3,11)          =         2.060939	       1.090602
	 R(4,11)          =         2.065574	       1.093055
	 R(5,6)           =         2.057605	       1.088838
	 R(6,7)           =         2.068205	       1.094447
	 R(6,8)           =         2.070799	       1.095820
	 R(6,9)           =         2.671812	       1.413862
	 R(11,12)         =         2.060097	       1.090157
	 B(1,2,10)        =         1.871494	     107.228716
	 B(1,9,6)         =         1.999084	     114.539057
	 B(1,11,3)        =         1.920183	     110.018374
	 B(1,11,4)        =         1.913663	     109.644840
	 B(1,11,12)       =         1.921824	     110.112427
	 B(2,1,9)         =         1.931660	     110.675943
	 B(2,1,11)        =         1.964076	     112.533255
	 B(2,1,13)        =         1.828881	     104.787143
	 B(3,11,4)        =         1.890099	     108.294689
	 B(3,11,12)       =         1.912229	     109.562667
	 B(4,11,12)       =         1.905488	     109.176396
	 B(5,6,7)         =         1.904575	     109.124107
	 B(5,6,8)         =         1.902213	     108.988769
	 B(5,6,9)         =         1.873733	     107.357020
	 B(7,6,8)         =         1.910613	     109.470089
	 B(7,6,9)         =         1.942779	     111.313064
	 B(8,6,9)         =         1.929083	     110.528293
	 B(9,1,11)        =         1.881063	     107.776992
	 B(9,1,13)        =         1.924005	     110.237375
	 B(11,1,13)       =         1.934595	     110.844157
	 D(1,9,6,5)       =         2.917907	     167.183767
	 D(1,9,6,7)       =         0.834577	      47.817750
	 D(1,9,6,8)       =        -1.292620	     -74.061692
	 D(2,1,9,6)       =        -1.616902	     -92.641670
	 D(2,1,11,3)      =         3.068103	     175.789376
	 D(2,1,11,4)      =        -1.138161	     -65.211817
	 D(2,1,11,12)     =         0.958715	      54.930327
	 D(3,11,1,9)      =        -1.080421	     -61.903540
	 D(3,11,1,13)     =         1.026456	      58.811596
	 D(4,11,1,9)      =         0.996500	      57.095266
	 D(4,11,1,13)     =         3.103377	     177.810403
	 D(6,9,1,11)      =         2.511759	     143.913182
	 D(6,9,1,13)      =         0.398253	      22.818231
	 D(9,1,2,10)      =        -0.954318	     -54.678388
	 D(9,1,11,12)     =         3.093376	     177.237411
	 D(10,2,1,11)     =         1.151523	      65.977418
	 D(10,2,1,13)     =        -3.028059	    -173.494989
	 D(12,11,1,13)    =        -1.082932	     -62.047453

	Current energy   :      -269.5340292380

	Generating empirical Hessian (Schlegel '84) for each fragment.
	Taking RFO optimization step.
	Going to follow RFO solution 1.
	Using RFO vector 1.

	Determining step-restricting scale parameter for RS-RFO.
	Maximum step size allowed    0.50000

	 Iter      |step|        alpha        rfo_root  
	------------------------------------------------
	    0     0.67580       1.00000           1
	    1     0.55127       1.81272           1
	    2     0.50662       2.27668           1
	    3     0.50014       2.35545           1
	    4     0.50000       2.35714           1
	------------------------------------------------
	Norm of target step-size    0.50000
	Projected energy change by RFO approximation:        -0.0023371158

	Back-transformation to cartesian coordinates...
	Could not converge backtransformation.
	Using first guess instead.

	--- Internal Coordinate Step in ANG or DEG, aJ/ANG or AJ/DEG ---
	 ---------------------------------------------------------------------------
	   Coordinate                Previous        Force       Change         New 
	   ----------                --------       ------       ------       ------
	    1 R(1,2)          =      1.406342    -0.006854     0.005072     1.411414
	    2 R(1,9)          =      1.403994    -0.003686     0.000103     1.404097
	    3 R(1,11)         =      1.514215     0.004033     0.008019     1.522234
	    4 R(1,13)         =      1.095497    -0.000253     0.002048     1.097545
	    5 R(2,10)         =      0.961532     0.012458     0.003068     0.964600
	    6 R(3,11)         =      1.090602    -0.000719     0.005074     1.095676
	    7 R(4,11)         =      1.093055     0.000853     0.003048     1.096102
	    8 R(5,6)          =      1.088838     0.000008     0.010016     1.098854
	    9 R(6,7)          =      1.094447     0.001251     0.033908     1.128354
	   10 R(6,8)          =      1.095820    -0.001417     0.033691     1.129511
	   11 R(6,9)          =      1.413862    -0.001413     0.017683     1.431545
	   12 R(11,12)        =      1.090157     0.000113     0.001010     1.091167
	   13 B(1,2,10)       =    107.228716     0.000010     0.112239   107.340955
	   14 B(1,9,6)        =    114.539057    -0.000123    -0.984490   113.554567
	   15 B(1,11,3)       =    110.018374     0.000021     0.134187   110.152561
	   16 B(1,11,4)       =    109.644840    -0.000015    -0.033697   109.611143
	   17 B(1,11,12)      =    110.112427     0.000001     0.078244   110.190671
	   18 B(2,1,9)        =    110.675943    -0.000047    -0.367051   110.308892
	   19 B(2,1,11)       =    112.533255    -0.000010    -0.059564   112.473691
	   20 B(2,1,13)       =    104.787143    -0.000048    -0.393932   104.393210
	   21 B(3,11,4)       =    108.294689    -0.000003     0.119519   108.414208
	   22 B(3,11,12)      =    109.562667    -0.000003     0.007546   109.570213
	   23 B(4,11,12)      =    109.176396    -0.000002    -0.309850   108.866546
	   24 B(5,6,7)        =    109.124107    -0.000007    -0.053751   109.070355
	   25 B(5,6,8)        =    108.988769     0.000010     0.789003   109.777772
	   26 B(5,6,9)        =    107.357020    -0.000005    -1.591757   105.765263
	   27 B(7,6,8)        =    109.470089     0.000002    -0.018966   109.451123
	   28 B(7,6,9)        =    111.313064    -0.000049     0.488827   111.801891
	   29 B(8,6,9)        =    110.528293     0.000050     0.365476   110.893769
	   30 B(9,1,11)       =    107.776992     0.000053     0.290913   108.067905
	   31 B(9,1,13)       =    110.237375    -0.000023    -0.164747   110.072628
	   32 B(11,1,13)      =    110.844157     0.000072     0.668304   111.512460
	   33 D(1,9,6,5)      =    167.183767     0.000008     4.427917   171.611684
	   34 D(1,9,6,7)      =     47.817750     0.000018     5.201018    53.018767
	   35 D(1,9,6,8)      =    -74.061692     0.000017     4.628041   -69.433651
	   36 D(2,1,9,6)      =    -92.641670     0.000060    15.793509   -76.848160
	   37 D(2,1,11,3)     =    175.789376     0.000002     0.049094   175.838470
	   38 D(2,1,11,4)     =    -65.211817     0.000002     0.257153   -64.954665
	   39 D(2,1,11,12)    =     54.930327    -0.000001    -0.097681    54.832646
	   40 D(3,11,1,9)     =    -61.903540    -0.000005    -0.249685   -62.153225
	   41 D(3,11,1,13)    =     58.811596     0.000006     0.141801    58.953397
	   42 D(4,11,1,9)     =     57.095266    -0.000005    -0.041626    57.053640
	   43 D(4,11,1,13)    =    177.810403     0.000006     0.349860   178.160262
	   44 D(6,9,1,11)     =    143.913182     0.000061    15.907821   159.821003
	   45 D(6,9,1,13)     =     22.818231     0.000037    15.005753    37.823984
	   46 D(9,1,2,10)     =    -54.678388    -0.000012    -1.385100   -56.063487
	   47 D(9,1,11,12)    =    177.237411    -0.000008    -0.396459   176.840951
	   48 D(10,2,1,11)    =     65.977418    -0.000005    -1.311942    64.665476
	   49 D(10,2,1,13)    =   -173.494989     0.000007    -0.784400  -174.279389
	   50 D(12,11,1,13)   =    -62.047453     0.000003    -0.004974   -62.052427
	 ---------------------------------------------------------------------------
	Successfully symmetrized geometry.

  ==> Convergence Check <==

  Measures of convergence in internal coordinates in au.
  Criteria marked as inactive (o), active & met (*), and active & unmet ( ).
  --------------------------------------------------------------------------------------------- ~
   Step     Total Energy     Delta E     MAX Force     RMS Force      MAX Disp      RMS Disp    ~
  --------------------------------------------------------------------------------------------- ~
    Convergence Criteria    1.00e-06 *    3.00e-04 *             o    1.20e-03 *             o  ~
  --------------------------------------------------------------------------------------------- ~
      1    -269.53402924   -2.70e+02      3.52e-03      9.12e-04 o    2.78e-01      7.15e-02 o  ~
  ---------------------------------------------------------------------------------------------

	Writing optimization data to binary file.
	Structure for next step:
	Cartesian Geometry (in Angstrom)
	    C     0.0959601552  -0.5012845602   0.1560274728
	    O    -0.9072979463  -0.7999825897  -0.7907263212
	    H     0.5581590456  -0.7751416752   2.2484689418
	    H    -1.1455218834  -0.3938254976   1.9126836241
	    H     1.0891387207   2.4579283337  -0.8311106071
	    C     1.1124342211   1.3617299549  -0.9038181189
	    H     0.6753468461   1.0486810415  -1.8958557905
	    H     2.1787178032   0.9964065667  -0.8305215792
	    O     0.3317438737   0.8822916886   0.1961743210
	    H    -1.6883167379  -0.2857937247  -0.5539315906
	    C    -0.2744274039  -0.9580198106   1.5600936758
	    H    -0.5199799764  -2.0211957301   1.5577794344
	    H     0.9862979554  -1.0245041814  -0.2156515377
			--------------------------
			 OPTKING Finished Execution 
			--------------------------

    Structure for next step:
    Molecular point group: c1
    Full point group: C1

    Geometry (in Angstrom), charge = 0, multiplicity = 1:

    C            0.041363548633    -0.503233336114     0.134455773611
    O           -0.961894552879    -0.801931365679    -0.812298020335
    H            0.503562438977    -0.777090451190     2.226897242644
    H           -1.200118490005    -0.395774273577     1.891111924911
    H            1.034542114152     2.455979557792    -0.852682306244
    C            1.057837614556     1.359781178949    -0.925389817996
    H            0.620750239563     1.046732265511    -1.917427489686
    H            2.124121196581     0.994457790750    -0.852093278330
    O            0.277147267127     0.880342912634     0.174602621899
    H           -1.742913344505    -0.287742500596    -0.575503289718
    C           -0.329024010501    -0.959968586517     1.538521976634
    H           -0.574576582985    -2.023144506056     1.536207735310
    H            0.931701348798    -1.026452957316    -0.237223236847

gradient() will perform analytic gradient computation.

*** tstart() called on localhost.localdomain
*** at Tue Mar 19 12:49:24 2019

   => Loading Basis Set <=

    Name: 6-311++G(D,P)
    Role: ORBITAL
    Keyword: BASIS
    atoms 1, 6, 11            entry C          line   119 file /root/psi4conda/share/psi4/basis/6-311ppg_d_p_.gbs 
    atoms 2, 9                entry O          line   161 file /root/psi4conda/share/psi4/basis/6-311ppg_d_p_.gbs 
    atoms 3-5, 7-8, 10, 12-13 entry H          line    42 file /root/psi4conda/share/psi4/basis/6-311ppg_d_p_.gbs 


         ---------------------------------------------------------
                                   SCF
            by Justin Turney, Rob Parrish, Andy Simmonett
                             and Daniel Smith
                              RKS Reference
                       32 Threads,    500 MiB Core
         ---------------------------------------------------------

  ==> Geometry <==

    Molecular point group: c1
    Full point group: C1

    Geometry (in Angstrom), charge = 0, multiplicity = 1:

       Center              X                  Y                   Z               Mass       
    ------------   -----------------  -----------------  -----------------  -----------------
         C            0.041363548633    -0.503233336114     0.134455773611    12.000000000000
         O           -0.961894552879    -0.801931365679    -0.812298020335    15.994914619560
         H            0.503562438977    -0.777090451190     2.226897242644     1.007825032070
         H           -1.200118490005    -0.395774273577     1.891111924911     1.007825032070
         H            1.034542114152     2.455979557792    -0.852682306244     1.007825032070
         C            1.057837614556     1.359781178949    -0.925389817996    12.000000000000
         H            0.620750239563     1.046732265511    -1.917427489686     1.007825032070
         H            2.124121196581     0.994457790750    -0.852093278330     1.007825032070
         O            0.277147267127     0.880342912634     0.174602621899    15.994914619560
         H           -1.742913344505    -0.287742500596    -0.575503289718     1.007825032070
         C           -0.329024010501    -0.959968586517     1.538521976634    12.000000000000
         H           -0.574576582985    -2.023144506056     1.536207735310     1.007825032070
         H            0.931701348798    -1.026452957316    -0.237223236847     1.007825032070

  Running in c1 symmetry.

  Rotational constants: A =      0.27616  B =      0.12828  C =      0.09778 [cm^-1]
  Rotational constants: A =   8278.91906  B =   3845.73622  C =   2931.35512 [MHz]
  Nuclear repulsion =  197.251399696640249

  Charge       = 0
  Multiplicity = 1
  Electrons    = 42
  Nalpha       = 21
  Nbeta        = 21

  ==> Algorithm <==

  SCF Algorithm Type is DF.
  DIIS enabled.
  MOM disabled.
  Fractional occupation disabled.
  Guess Type is READ.
  Energy threshold   = 1.00e-08
  Density threshold  = 1.00e-08
  Integral threshold = 0.00e+00

  ==> Primary Basis <==

  Basis Set: 6-311++G(D,P)
    Blend: 6-311++G(D,P)
    Number of shells: 90
    Number of basis function: 166
    Number of Cartesian functions: 171
    Spherical Harmonics?: true
    Max angular momentum: 2

  ==> DFT Potential <==

   => Composite Functional: M06-2X <= 

    Hybrid M06-2X Meta-GGA XC Functional

    Y. Zhao and D. G. Truhlar,  Theor. Chem. Acc., 120, 215, 2008


    Deriv               =              1
    GGA                 =           TRUE
    Meta                =           TRUE

    Exchange Hybrid     =           TRUE
    MP2 Hybrid          =          FALSE

   => Exchange Functionals <=

    1.0000   XC_HYB_MGGA_X_M06_2X

   => Exact (HF) Exchange <=

    0.5400               HF 

   => Correlation Functionals <=

    1.0000   XC_MGGA_C_M06_2X

   => Molecular Quadrature <=

    Radial Scheme       =       TREUTLER
    Pruning Scheme      =           FLAT
    Nuclear Scheme      =       TREUTLER

    BS radius alpha     =              1
    Pruning alpha       =              1
    Radial Points       =             75
    Spherical Points    =            302
    Total Points        =         294450
    Total Blocks        =           2267
    Max Points          =            256
    Max Functions       =            166

   => Loading Basis Set <=

    Name: (6-311++G(D,P) AUX)
    Role: JKFIT
    Keyword: DF_BASIS_SCF
    atoms 1, 6, 11            entry C          line   162 file /root/psi4conda/share/psi4/basis/aug-cc-pvtz-jkfit.gbs 
    atoms 2, 9                entry O          line   286 file /root/psi4conda/share/psi4/basis/aug-cc-pvtz-jkfit.gbs 
    atoms 3-5, 7-8, 10, 12-13 entry H          line    70 file /root/psi4conda/share/psi4/basis/aug-cc-pvtz-jkfit.gbs 

  Reading orbitals from file 180, no projection.

  ==> Pre-Iterations <==

   -------------------------------------------------------
    Irrep   Nso     Nmo     Nalpha   Nbeta   Ndocc  Nsocc
   -------------------------------------------------------
     A        166     166       0       0       0       0
   -------------------------------------------------------
    Total     166     166      21      21      21       0
   -------------------------------------------------------

  ==> Integral Setup <==

  DFHelper Memory: AOs need 0.239 [GiB]; user supplied 0.366 [GiB]. Using in-core AOs.

  ==> MemDFJK: Density-Fitted J/K Matrices <==

    J tasked:                   Yes
    K tasked:                   Yes
    wK tasked:                   No
    OpenMP threads:              32
    Memory (MB):                375
    Algorithm:                 Core
    Schwarz Cutoff:           1E-12
    Mask sparsity (%):       1.9306
    Fitting Condition:        1E-12

   => Auxiliary Basis Set <=

  Basis Set: (6-311++G(D,P) AUX)
    Blend: AUG-CC-PVTZ-JKFIT
    Number of shells: 262
    Number of basis function: 888
    Number of Cartesian functions: 1095
    Spherical Harmonics?: true
    Max angular momentum: 4

  Minimum eigenvalue in the overlap matrix is 6.2690842536E-05.
  Using Symmetric Orthogonalization.

  SCF Guess: Orbitals guess was supplied from a previous computation.

  ==> Iterations <==

                           Total Energy        Delta E     RMS |[F,P]|

   @DF-RKS iter   0:  -269.43838096867000   -2.69438e+02   3.66669e-03 
   @DF-RKS iter   1:  -269.53196793084032   -9.35870e-02   1.03984e-03 
   @DF-RKS iter   2:  -269.53353552295590   -1.56759e-03   9.61667e-04 DIIS
   @DF-RKS iter   3:  -269.53442218582700   -8.86663e-04   2.25520e-04 DIIS
   @DF-RKS iter   4:  -269.53445376836981   -3.15825e-05   1.39811e-04 DIIS
   @DF-RKS iter   5:  -269.53446102673860   -7.25837e-06   2.78332e-05 DIIS
   @DF-RKS iter   6:  -269.53446139473783   -3.67999e-07   5.07674e-06 DIIS
   @DF-RKS iter   7:  -269.53446141650579   -2.17680e-08   2.03262e-06 DIIS
   @DF-RKS iter   8:  -269.53446142216501   -5.65922e-09   5.97995e-07 DIIS
   @DF-RKS iter   9:  -269.53446142252062   -3.55612e-10   1.71642e-07 DIIS
   @DF-RKS iter  10:  -269.53446142257445   -5.38307e-11   2.21353e-08 DIIS
   @DF-RKS iter  11:  -269.53446142257633   -1.87583e-12   4.93180e-09 DIIS

  ==> Post-Iterations <==

    Orbital Energies [Eh]
    ---------------------

    Doubly Occupied:                                                      

       1A    -19.632699     2A    -19.625714     3A    -10.640917  
       4A    -10.588734     5A    -10.531782     6A     -1.195289  
       7A     -1.123232     8A     -0.855029     9A     -0.771221  
      10A     -0.710625    11A     -0.598244    12A     -0.571562  
      13A     -0.545106    14A     -0.501530    15A     -0.497060  
      16A     -0.456066    17A     -0.451310    18A     -0.438386  
      19A     -0.390081    20A     -0.368814    21A     -0.348786  

    Virtual:                                                              

      22A     -0.000543    23A      0.010999    24A      0.015913  
      25A      0.026305    26A      0.040644    27A      0.045763  
      28A      0.049049    29A      0.054735    30A      0.079686  
      31A      0.084232    32A      0.096837    33A      0.106744  
      34A      0.118185    35A      0.119518    36A      0.129934  
      37A      0.137484    38A      0.146555    39A      0.147492  
      40A      0.159023    41A      0.170655    42A      0.202651  
      43A      0.209760    44A      0.215024    45A      0.217590  
      46A      0.228129    47A      0.237658    48A      0.242523  
      49A      0.257646    50A      0.275181    51A      0.291343  
      52A      0.296245    53A      0.300156    54A      0.305469  
      55A      0.329802    56A      0.345439    57A      0.354698  
      58A      0.365669    59A      0.390509    60A      0.400673  
      61A      0.403921    62A      0.475624    63A      0.488947  
      64A      0.499210    65A      0.512956    66A      0.591759  
      67A      0.610712    68A      0.623298    69A      0.628853  
      70A      0.658567    71A      0.681989    72A      0.689275  
      73A      0.699531    74A      0.701422    75A      0.722809  
      76A      0.739765    77A      0.755160    78A      0.777443  
      79A      0.907461    80A      0.991069    81A      1.019075  
      82A      1.031186    83A      1.066795    84A      1.101385  
      85A      1.140410    86A      1.171009    87A      1.238839  
      88A      1.262890    89A      1.300106    90A      1.319269  
      91A      1.339854    92A      1.405524    93A      1.472930  
      94A      1.484046    95A      1.506221    96A      1.515689  
      97A      1.555916    98A      1.582227    99A      1.594860  
     100A      1.605252   101A      1.620551   102A      1.650681  
     103A      1.659961   104A      1.703922   105A      1.722727  
     106A      1.738795   107A      1.774058   108A      1.779206  
     109A      1.825223   110A      1.860728   111A      1.908455  
     112A      1.933771   113A      2.006594   114A      2.035023  
     115A      2.068078   116A      2.120147   117A      2.153896  
     118A      2.177830   119A      2.203258   120A      2.311628  
     121A      2.330372   122A      2.413222   123A      2.493867  
     124A      2.502097   125A      2.527686   126A      2.555525  
     127A      2.582512   128A      2.592289   129A      2.604318  
     130A      2.614712   131A      2.650649   132A      2.672925  
     133A      2.707094   134A      2.776741   135A      2.882592  
     136A      2.910578   137A      2.948405   138A      3.025240  
     139A      3.070785   140A      3.126538   141A      3.168784  
     142A      3.208813   143A      3.260490   144A      3.336604  
     145A      3.362827   146A      3.510976   147A      3.768224  
     148A      3.774247   149A      3.846210   150A      3.857362  
     151A      3.892422   152A      4.037382   153A      4.074777  
     154A      4.172333   155A      4.290617   156A      5.210414  
     157A      5.219842   158A      5.441558   159A      5.530358  
     160A      5.680922   161A      5.845713   162A     23.823487  
     163A     23.937958   164A     24.037987   165A     50.021698  
     166A     50.050451  

    Final Occupation by Irrep:
              A 
    DOCC [    21 ]

  Energy converged.

  @DF-RKS Final Energy:  -269.53446142257633

   => Energetics <=

    Nuclear Repulsion Energy =            197.2513996966402487
    One-Electron Energy =                -757.4428544656345821
    Two-Electron Energy =                 308.1880770000342977
    DFT Exchange-Correlation Energy =     -17.5310836536162284
    Empirical Dispersion Energy =           0.0000000000000000
    VV10 Nonlocal Energy =                  0.0000000000000000
    Total Energy =                       -269.5344614225763280



Properties will be evaluated at   0.000000,   0.000000,   0.000000 [a0]

Properties computed using the SCF density matrix

  Nuclear Dipole Moment: [e a0]
     X:     1.5877      Y:    -0.0118      Z:     1.1400

  Electronic Dipole Moment: [e a0]
     X:    -1.4249      Y:     0.1438      Z:    -1.0074

  Dipole Moment: [e a0]
     X:     0.1628      Y:     0.1319      Z:     0.1326     Total:     0.2480

  Dipole Moment: [D]
     X:     0.4138      Y:     0.3353      Z:     0.3371     Total:     0.6303


*** tstop() called on localhost.localdomain at Tue Mar 19 12:49:33 2019
Module time:
	user time   =     236.00 seconds =       3.93 minutes
	system time =      11.01 seconds =       0.18 minutes
	total time  =          9 seconds =       0.15 minutes
Total time:
	user time   =     662.47 seconds =      11.04 minutes
	system time =      34.82 seconds =       0.58 minutes
	total time  =         29 seconds =       0.48 minutes

*** tstart() called on localhost.localdomain
*** at Tue Mar 19 12:49:33 2019


         ------------------------------------------------------------
                                   SCF GRAD                          
                          Rob Parrish, Justin Turney,                
                       Andy Simmonett, and Alex Sokolov              
         ------------------------------------------------------------

  ==> Geometry <==

    Molecular point group: c1
    Full point group: C1

    Geometry (in Angstrom), charge = 0, multiplicity = 1:

       Center              X                  Y                   Z               Mass       
    ------------   -----------------  -----------------  -----------------  -----------------
         C            0.041363548633    -0.503233336114     0.134455773611    12.000000000000
         O           -0.961894552879    -0.801931365679    -0.812298020335    15.994914619560
         H            0.503562438977    -0.777090451190     2.226897242644     1.007825032070
         H           -1.200118490005    -0.395774273577     1.891111924911     1.007825032070
         H            1.034542114152     2.455979557792    -0.852682306244     1.007825032070
         C            1.057837614556     1.359781178949    -0.925389817996    12.000000000000
         H            0.620750239563     1.046732265511    -1.917427489686     1.007825032070
         H            2.124121196581     0.994457790750    -0.852093278330     1.007825032070
         O            0.277147267127     0.880342912634     0.174602621899    15.994914619560
         H           -1.742913344505    -0.287742500596    -0.575503289718     1.007825032070
         C           -0.329024010501    -0.959968586517     1.538521976634    12.000000000000
         H           -0.574576582985    -2.023144506056     1.536207735310     1.007825032070
         H            0.931701348798    -1.026452957316    -0.237223236847     1.007825032070

  Nuclear repulsion =  197.251399696640249

  ==> Basis Set <==

  Basis Set: 6-311++G(D,P)
    Blend: 6-311++G(D,P)
    Number of shells: 90
    Number of basis function: 166
    Number of Cartesian functions: 171
    Spherical Harmonics?: true
    Max angular momentum: 2

  ==> DFJKGrad: Density-Fitted SCF Gradients <==

    Gradient:                    1
    J tasked:                  Yes
    K tasked:                  Yes
    wK tasked:                  No
    OpenMP threads:             32
    Integrals threads:          32
    Memory (MB):               375
    Schwarz Cutoff:          0E+00
    Fitting Condition:       1E-12

   => Auxiliary Basis Set <=

  Basis Set: (6-311++G(D,P) AUX)
    Blend: AUG-CC-PVTZ-JKFIT
    Number of shells: 262
    Number of basis function: 888
    Number of Cartesian functions: 1095
    Spherical Harmonics?: true
    Max angular momentum: 4

  ==> DFT Potential <==

   => Composite Functional: M06-2X <= 

    Hybrid M06-2X Meta-GGA XC Functional

    Y. Zhao and D. G. Truhlar,  Theor. Chem. Acc., 120, 215, 2008


    Deriv               =              1
    GGA                 =           TRUE
    Meta                =           TRUE

    Exchange Hybrid     =           TRUE
    MP2 Hybrid          =          FALSE

   => Exchange Functionals <=

    1.0000   XC_HYB_MGGA_X_M06_2X

   => Exact (HF) Exchange <=

    0.5400               HF 

   => Correlation Functionals <=

    1.0000   XC_MGGA_C_M06_2X

   => Molecular Quadrature <=

    Radial Scheme       =       TREUTLER
    Pruning Scheme      =           FLAT
    Nuclear Scheme      =       TREUTLER

    BS radius alpha     =              1
    Pruning alpha       =              1
    Radial Points       =             75
    Spherical Points    =            302
    Total Points        =         294450
    Total Blocks        =           2267
    Max Points          =            256
    Max Functions       =            166


  -Total Gradient:
     Atom            X                  Y                   Z
    ------   -----------------  -----------------  -----------------
       1        0.002464071623    -0.000336276107     0.000561111068
       2       -0.001113300307    -0.000428145213    -0.001044979824
       3        0.002780250187     0.000482359200     0.002195626536
       4       -0.001722046051     0.000624964136     0.000811594805
       5       -0.002165541235     0.006961669796     0.001344777723
       6       -0.001648850242     0.005651189789     0.006930301440
       7       -0.007169636879    -0.004262333036    -0.019153749668
       8        0.019448609137    -0.006047679428     0.000982683732
       9       -0.008587650707     0.000379384110     0.007039934929
      10       -0.001056376060     0.001284596847    -0.000392048337
      11       -0.001234527867    -0.003551781977     0.001284897964
      12       -0.000574781691    -0.000819425391     0.000774107078
      13        0.000691706717    -0.000016580086    -0.001283371868


*** tstop() called on localhost.localdomain at Tue Mar 19 12:49:38 2019
Module time:
	user time   =      87.35 seconds =       1.46 minutes
	system time =       5.18 seconds =       0.09 minutes
	total time  =          5 seconds =       0.08 minutes
Total time:
	user time   =     749.88 seconds =      12.50 minutes
	system time =      40.00 seconds =       0.67 minutes
	total time  =         34 seconds =       0.57 minutes

			-----------------------------------------
			 OPTKING 2.0: for geometry optimizations 
			  - R.A. King,  Bethel University        
			-----------------------------------------

	Previous internal coordinate definitions found.
	---Fragment 1 Geometry and Gradient---
	 C           0.0781657788       -0.9509731862        0.2540845891
	 O          -1.8177172737       -1.5154306585       -1.5350207967
	 H           0.9515951005       -1.4684881332        4.2082259147
	 H          -2.2678952731       -0.7479049875        3.5736836247
	 H           1.9550012687        4.6411287522       -1.6113360372
	 C           1.9990233846        2.5696140289       -1.7487333222
	 H           1.1730479497        1.9780373163       -3.6234128352
	 H           4.0140073346        1.8792528752       -1.6102229357
	 O           0.5237324333        1.6636070079        0.3299511375
	 H          -3.2936288945       -0.5437545229       -1.0875436061
	 C          -0.6217652710       -1.8140777247        2.9073851853
	 H          -1.0857923842       -3.8231890437        2.9030119030
	 H           1.7606603869       -1.9397149776       -0.4482869500
	             0.0024640716       -0.0003362761        0.0005611111
	            -0.0011133003       -0.0004281452       -0.0010449798
	             0.0027802502        0.0004823592        0.0021956265
	            -0.0017220461        0.0006249641        0.0008115948
	            -0.0021655412        0.0069616698        0.0013447777
	            -0.0016488502        0.0056511898        0.0069303014
	            -0.0071696369       -0.0042623330       -0.0191537497
	             0.0194486091       -0.0060476794        0.0009826837
	            -0.0085876507        0.0003793841        0.0070399349
	            -0.0010563761        0.0012845968       -0.0003920483
	            -0.0012345279       -0.0035517820        0.0012848980
	            -0.0005747817       -0.0008194254        0.0007741071
	             0.0006917067       -0.0000165801       -0.0012833719

	---Fragment 1 Intrafragment Coordinates---
	 - Coordinate -           - BOHR/RAD -       - ANG/DEG -
	 R(1,2)           =         2.667186	       1.411414
	 R(1,9)           =         2.653359	       1.404097
	 R(1,11)          =         2.876605	       1.522234
	 R(1,13)          =         2.074060	       1.097545
	 R(2,10)          =         1.822829	       0.964600
	 R(3,11)          =         2.070527	       1.095676
	 R(4,11)          =         2.071333	       1.096102
	 R(5,6)           =         2.076533	       1.098854
	 R(6,7)           =         2.132281	       1.128354
	 R(6,8)           =         2.134466	       1.129511
	 R(6,9)           =         2.705228	       1.431545
	 R(11,12)         =         2.062006	       1.091167
	 B(1,2,10)        =         1.873453	     107.340955
	 B(1,9,6)         =         1.981901	     113.554567
	 B(1,11,3)        =         1.922525	     110.152561
	 B(1,11,4)        =         1.913075	     109.611143
	 B(1,11,12)       =         1.923190	     110.190671
	 B(2,1,9)         =         1.925253	     110.308892
	 B(2,1,11)        =         1.963036	     112.473691
	 B(2,1,13)        =         1.822005	     104.393210
	 B(3,11,4)        =         1.892185	     108.414208
	 B(3,11,12)       =         1.912361	     109.570213
	 B(4,11,12)       =         1.900080	     108.866546
	 B(5,6,7)         =         1.903637	     109.070355
	 B(5,6,8)         =         1.915984	     109.777772
	 B(5,6,9)         =         1.845952	     105.765263
	 B(7,6,8)         =         1.910282	     109.451123
	 B(7,6,9)         =         1.951311	     111.801891
	 B(8,6,9)         =         1.935461	     110.893769
	 B(9,1,11)        =         1.886141	     108.067905
	 B(9,1,13)        =         1.921130	     110.072628
	 B(11,1,13)       =         1.946260	     111.512460
	 D(1,9,6,5)       =         2.995189	     171.611684
	 D(1,9,6,7)       =         0.925352	      53.018767
	 D(1,9,6,8)       =        -1.211846	     -69.433651
	 D(2,1,9,6)       =        -1.341253	     -76.848160
	 D(2,1,11,3)      =         3.068960	     175.838470
	 D(2,1,11,4)      =        -1.133673	     -64.954665
	 D(2,1,11,12)     =         0.957010	      54.832646
	 D(3,11,1,9)      =        -1.084778	     -62.153225
	 D(3,11,1,13)     =         1.028931	      58.953397
	 D(4,11,1,9)      =         0.995774	      57.053640
	 D(4,11,1,13)     =         3.109483	     178.160262
	 D(6,9,1,11)      =         2.789403	     159.821003
	 D(6,9,1,13)      =         0.660153	      37.823984
	 D(9,1,2,10)      =        -0.978492	     -56.063487
	 D(9,1,11,12)     =         3.086457	     176.840951
	 D(10,2,1,11)     =         1.128625	      64.665476
	 D(10,2,1,13)     =        -3.041749	    -174.279389
	 D(12,11,1,13)    =        -1.083019	     -62.052427

	Current energy   :      -269.5344614226

	Energy change for the previous step:
		Projected    :        -0.0023371158
		Actual       :        -0.0004321846
	Energy ratio indicates iffy step: Trust radius decreased to 1.250e-01.


	Performing BFGS update.
	Previous computed or guess Hessian on step 1.
	Steps to be used in Hessian update: 1
	Taking RFO optimization step.
	Going to follow RFO solution 1.
	Using RFO vector 1.

	Determining step-restricting scale parameter for RS-RFO.
	Maximum step size allowed    0.12500

	 Iter      |step|        alpha        rfo_root  
	------------------------------------------------
	    0     0.35562       1.00000           1
	    1     0.22953       2.57818           1
	    2     0.16715       4.95157           1
	    3     0.13842       7.64968           1
	    4     0.12739       9.49832           1
	    5     0.12510       9.98445           1
	    6     0.12500      10.00782           1
	------------------------------------------------
	Norm of target step-size    0.12500
	Projected energy change by RFO approximation:        -0.0033193861

	Back-transformation to cartesian coordinates...
	Could not converge backtransformation.
	Using first guess instead.

	--- Internal Coordinate Step in ANG or DEG, aJ/ANG or AJ/DEG ---
	 ---------------------------------------------------------------------------
	   Coordinate                Previous        Force       Change         New 
	   ----------                --------       ------       ------       ------
	    1 R(1,2)          =      1.411414    -0.019325    -0.004590     1.406824
	    2 R(1,9)          =      1.404097    -0.021270    -0.001365     1.402732
	    3 R(1,11)         =      1.522234    -0.047848    -0.007411     1.514823
	    4 R(1,13)         =      1.097545    -0.008179    -0.001672     1.095873
	    5 R(2,10)         =      0.964600    -0.012079    -0.001518     0.963082
	    6 R(3,11)         =      1.095676    -0.029243    -0.004859     1.090816
	    7 R(4,11)         =      1.096102    -0.016148    -0.002629     1.093473
	    8 R(5,6)          =      1.098854    -0.058394    -0.009112     1.089742
	    9 R(6,7)          =      1.128354    -0.171259    -0.029995     1.098360
	   10 R(6,8)          =      1.129511    -0.167925    -0.030032     1.099479
	   11 R(6,9)          =      1.431545    -0.106947    -0.015959     1.415586
	   12 R(11,12)        =      1.091167    -0.007692    -0.001052     1.090115
	   13 B(1,2,10)       =    107.340955    -0.000045    -0.099359   107.241596
	   14 B(1,9,6)        =    113.554567    -0.000161     0.199740   113.754307
	   15 B(1,11,3)       =    110.152561     0.000019     0.029086   110.181648
	   16 B(1,11,4)       =    109.611143    -0.000023    -0.062012   109.549131
	   17 B(1,11,12)      =    110.190671    -0.000083    -0.163986   110.026685
	   18 B(2,1,9)        =    110.308892     0.000183     0.260145   110.569037
	   19 B(2,1,11)       =    112.473691    -0.000043    -0.068849   112.404842
	   20 B(2,1,13)       =    104.393210    -0.000024    -0.049974   104.343236
	   21 B(3,11,4)       =    108.414208     0.000002    -0.048060   108.366148
	   22 B(3,11,12)      =    109.570213     0.000029     0.053473   109.623686
	   23 B(4,11,12)      =    108.866546     0.000058     0.195541   109.062088
	   24 B(5,6,7)        =    109.070355     0.000074     0.152961   109.223316
	   25 B(5,6,8)        =    109.777772    -0.000057    -0.421683   109.356089
	   26 B(5,6,9)        =    105.765263     0.000307     1.287926   107.053188
	   27 B(7,6,8)        =    109.451123     0.000031    -0.002547   109.448576
	   28 B(7,6,9)        =    111.801891    -0.000241    -0.773630   111.028261
	   29 B(8,6,9)        =    110.893769    -0.000104    -0.212898   110.680871
	   30 B(9,1,11)       =    108.067905    -0.000188    -0.250568   107.817336
	   31 B(9,1,13)       =    110.072628     0.000035     0.116508   110.189136
	   32 B(11,1,13)      =    111.512460     0.000050     0.013940   111.526400
	   33 D(1,9,6,5)      =    171.611684     0.000014     0.925838   172.537522
	   34 D(1,9,6,7)      =     53.018767    -0.000019     0.382576    53.401343
	   35 D(1,9,6,8)      =    -69.433651     0.000027     1.072224   -68.361427
	   36 D(2,1,9,6)      =    -76.848160     0.000015     2.380743   -74.467417
	   37 D(2,1,11,3)     =    175.838470    -0.000008    -0.039332   175.799138
	   38 D(2,1,11,4)     =    -64.954665    -0.000008    -0.118970   -65.073635
	   39 D(2,1,11,12)    =     54.832646    -0.000006    -0.018513    54.814133
	   40 D(3,11,1,9)     =    -62.153225     0.000009     0.070738   -62.082487
	   41 D(3,11,1,13)    =     58.953397    -0.000002     0.059340    59.012737
	   42 D(4,11,1,9)     =     57.053640     0.000009    -0.008899    57.044741
	   43 D(4,11,1,13)    =    178.160262    -0.000002    -0.020297   178.139965
	   44 D(6,9,1,11)     =    159.821003     0.000029     2.466692   162.287695
	   45 D(6,9,1,13)     =     37.823984     0.000038     2.537351    40.361335
	   46 D(9,1,2,10)     =    -56.063487     0.000011    -0.230889   -56.294376
	   47 D(9,1,11,12)    =    176.840951     0.000010     0.091558   176.932509
	   48 D(10,2,1,11)    =     64.665476    -0.000021    -0.415158    64.250317
	   49 D(10,2,1,13)    =   -174.279389    -0.000016    -0.467727  -174.747116
	   50 D(12,11,1,13)   =    -62.052427    -0.000001     0.080159   -61.972267
	 ---------------------------------------------------------------------------
	Successfully symmetrized geometry.

  ==> Convergence Check <==

  Measures of convergence in internal coordinates in au.
  Criteria marked as inactive (o), active & met (*), and active & unmet ( ).
  ---------------------------------------------------------------------------------------------
   Step     Total Energy     Delta E     MAX Force     RMS Force      MAX Disp      RMS Disp   
  ---------------------------------------------------------------------------------------------
    Convergence Criteria    1.00e-06 *    3.00e-04 *             o    1.20e-03 *             o
  ---------------------------------------------------------------------------------------------
      2    -269.53446142   -4.32e-04      2.08e-02      4.90e-03 o    5.68e-02      1.75e-02 o  ~
  ---------------------------------------------------------------------------------------------

	Writing optimization data to binary file.
	Structure for next step:
	Cartesian Geometry (in Angstrom)
	    C     0.0574390406  -0.5065376000   0.1385014291
	    O    -0.9326743590  -0.8030455692  -0.8159163902
	    H     0.4885694268  -0.7739962996   2.2283109020
	    H    -1.2012082460  -0.3819309899   1.8703146753
	    H     1.0546573278   2.4447142113  -0.8478785933
	    C     1.0441238241   1.3574966075  -0.9212637086
	    H     0.5757749270   1.0636168975  -1.8703042164
	    H     2.0763474998   0.9801388738  -0.8901290609
	    O     0.3015903314   0.8740743933   0.1827431782
	    H    -1.7137804976  -0.2886331596  -0.5861786509
	    C    -0.3321906251  -0.9532431095   1.5325354637
	    H    -0.5833225132  -2.0140273293   1.5280910936
	    H     0.9471726509  -1.0366711977  -0.2196462858
			--------------------------
			 OPTKING Finished Execution 
			--------------------------

    Structure for next step:
    Molecular point group: c1
    Full point group: C1

    Geometry (in Angstrom), charge = 0, multiplicity = 1:

    C            0.046980356796    -0.505247024967     0.137294431687
    O           -0.943133042779    -0.801754994180    -0.817123387581
    H            0.478110743000    -0.772705724568     2.227103904640
    H           -1.211666929791    -0.380640414908     1.869107677938
    H            1.044198644004     2.446004786350    -0.849085590726
    C            1.033665140292     1.358787182480    -0.922470706032
    H            0.565316243195     1.064907472510    -1.871511213851
    H            2.065888816015     0.981429448761    -0.891336058329
    O            0.291131647575     0.875364968278     0.181536180760
    H           -1.724239181437    -0.287342584564    -0.587385648272
    C           -0.342649308853    -0.951952534487     1.531328466345
    H           -0.593781197014    -2.012736754273     1.526884096183
    H            0.936713967127    -1.035380622706    -0.220853283162

gradient() will perform analytic gradient computation.

*** tstart() called on localhost.localdomain
*** at Tue Mar 19 12:49:38 2019

   => Loading Basis Set <=

    Name: 6-311++G(D,P)
    Role: ORBITAL
    Keyword: BASIS
    atoms 1, 6, 11            entry C          line   119 file /root/psi4conda/share/psi4/basis/6-311ppg_d_p_.gbs 
    atoms 2, 9                entry O          line   161 file /root/psi4conda/share/psi4/basis/6-311ppg_d_p_.gbs 
    atoms 3-5, 7-8, 10, 12-13 entry H          line    42 file /root/psi4conda/share/psi4/basis/6-311ppg_d_p_.gbs 


         ---------------------------------------------------------
                                   SCF
            by Justin Turney, Rob Parrish, Andy Simmonett
                             and Daniel Smith
                              RKS Reference
                       32 Threads,    500 MiB Core
         ---------------------------------------------------------

  ==> Geometry <==

    Molecular point group: c1
    Full point group: C1

    Geometry (in Angstrom), charge = 0, multiplicity = 1:

       Center              X                  Y                   Z               Mass       
    ------------   -----------------  -----------------  -----------------  -----------------
         C            0.046980356796    -0.505247024967     0.137294431687    12.000000000000
         O           -0.943133042779    -0.801754994180    -0.817123387581    15.994914619560
         H            0.478110743000    -0.772705724568     2.227103904640     1.007825032070
         H           -1.211666929791    -0.380640414908     1.869107677938     1.007825032070
         H            1.044198644004     2.446004786350    -0.849085590726     1.007825032070
         C            1.033665140292     1.358787182480    -0.922470706032    12.000000000000
         H            0.565316243195     1.064907472510    -1.871511213851     1.007825032070
         H            2.065888816015     0.981429448761    -0.891336058329     1.007825032070
         O            0.291131647575     0.875364968278     0.181536180760    15.994914619560
         H           -1.724239181437    -0.287342584564    -0.587385648272     1.007825032070
         C           -0.342649308853    -0.951952534487     1.531328466345    12.000000000000
         H           -0.593781197014    -2.012736754273     1.526884096183     1.007825032070
         H            0.936713967127    -1.035380622706    -0.220853283162     1.007825032070

  Running in c1 symmetry.

  Rotational constants: A =      0.27963  B =      0.12988  C =      0.09876 [cm^-1]
  Rotational constants: A =   8383.14479  B =   3893.71216  C =   2960.78433 [MHz]
  Nuclear repulsion =  198.398256042928068

  Charge       = 0
  Multiplicity = 1
  Electrons    = 42
  Nalpha       = 21
  Nbeta        = 21

  ==> Algorithm <==

  SCF Algorithm Type is DF.
  DIIS enabled.
  MOM disabled.
  Fractional occupation disabled.
  Guess Type is READ.
  Energy threshold   = 1.00e-08
  Density threshold  = 1.00e-08
  Integral threshold = 0.00e+00

  ==> Primary Basis <==

  Basis Set: 6-311++G(D,P)
    Blend: 6-311++G(D,P)
    Number of shells: 90
    Number of basis function: 166
    Number of Cartesian functions: 171
    Spherical Harmonics?: true
    Max angular momentum: 2

  ==> DFT Potential <==

   => Composite Functional: M06-2X <= 

    Hybrid M06-2X Meta-GGA XC Functional

    Y. Zhao and D. G. Truhlar,  Theor. Chem. Acc., 120, 215, 2008


    Deriv               =              1
    GGA                 =           TRUE
    Meta                =           TRUE

    Exchange Hybrid     =           TRUE
    MP2 Hybrid          =          FALSE

   => Exchange Functionals <=

    1.0000   XC_HYB_MGGA_X_M06_2X

   => Exact (HF) Exchange <=

    0.5400               HF 

   => Correlation Functionals <=

    1.0000   XC_MGGA_C_M06_2X

   => Molecular Quadrature <=

    Radial Scheme       =       TREUTLER
    Pruning Scheme      =           FLAT
    Nuclear Scheme      =       TREUTLER

    BS radius alpha     =              1
    Pruning alpha       =              1
    Radial Points       =             75
    Spherical Points    =            302
    Total Points        =         294450
    Total Blocks        =           2268
    Max Points          =            256
    Max Functions       =            166

   => Loading Basis Set <=

    Name: (6-311++G(D,P) AUX)
    Role: JKFIT
    Keyword: DF_BASIS_SCF
    atoms 1, 6, 11            entry C          line   162 file /root/psi4conda/share/psi4/basis/aug-cc-pvtz-jkfit.gbs 
    atoms 2, 9                entry O          line   286 file /root/psi4conda/share/psi4/basis/aug-cc-pvtz-jkfit.gbs 
    atoms 3-5, 7-8, 10, 12-13 entry H          line    70 file /root/psi4conda/share/psi4/basis/aug-cc-pvtz-jkfit.gbs 

  Reading orbitals from file 180, no projection.

  ==> Pre-Iterations <==

   -------------------------------------------------------
    Irrep   Nso     Nmo     Nalpha   Nbeta   Ndocc  Nsocc
   -------------------------------------------------------
     A        166     166       0       0       0       0
   -------------------------------------------------------
    Total     166     166      21      21      21       0
   -------------------------------------------------------

  ==> Integral Setup <==

  DFHelper Memory: AOs need 0.239 [GiB]; user supplied 0.366 [GiB]. Using in-core AOs.

  ==> MemDFJK: Density-Fitted J/K Matrices <==

    J tasked:                   Yes
    K tasked:                   Yes
    wK tasked:                   No
    OpenMP threads:              32
    Memory (MB):                375
    Algorithm:                 Core
    Schwarz Cutoff:           1E-12
    Mask sparsity (%):       1.9016
    Fitting Condition:        1E-12

   => Auxiliary Basis Set <=

  Basis Set: (6-311++G(D,P) AUX)
    Blend: AUG-CC-PVTZ-JKFIT
    Number of shells: 262
    Number of basis function: 888
    Number of Cartesian functions: 1095
    Spherical Harmonics?: true
    Max angular momentum: 4

  Minimum eigenvalue in the overlap matrix is 6.0597710172E-05.
  Using Symmetric Orthogonalization.

  SCF Guess: Orbitals guess was supplied from a previous computation.

  ==> Iterations <==

                           Total Energy        Delta E     RMS |[F,P]|

   @DF-RKS iter   0:  -269.56513078474006   -2.69565e+02   1.42323e-03 
   @DF-RKS iter   1:  -269.53640184501052    2.87289e-02   2.24088e-04 
   @DF-RKS iter   2:  -269.53646004420830   -5.81992e-05   1.19080e-04 DIIS
   @DF-RKS iter   3:  -269.53648531899785   -2.52748e-05   2.19842e-05 DIIS
   @DF-RKS iter   4:  -269.53648659944287   -1.28045e-06   1.14303e-05 DIIS
   @DF-RKS iter   5:  -269.53648675251031   -1.53067e-07   1.01402e-05 DIIS
   @DF-RKS iter   6:  -269.53648678427101   -3.17607e-08   1.50337e-06 DIIS
   @DF-RKS iter   7:  -269.53648678544903   -1.17802e-09   4.25940e-07 DIIS
   @DF-RKS iter   8:  -269.53648678555663   -1.07605e-10   1.35148e-07 DIIS
   @DF-RKS iter   9:  -269.53648678556613   -9.49285e-12   4.17761e-08 DIIS
   @DF-RKS iter  10:  -269.53648678556715   -1.02318e-12   1.17300e-08 DIIS
   @DF-RKS iter  11:  -269.53648678556800   -8.52651e-13   1.21117e-09 DIIS

  ==> Post-Iterations <==

    Orbital Energies [Eh]
    ---------------------

    Doubly Occupied:                                                      

       1A    -19.630977     2A    -19.626291     3A    -10.639960  
       4A    -10.579924     5A    -10.530195     6A     -1.198757  
       7A     -1.126477     8A     -0.858540     9A     -0.774769  
      10A     -0.712399    11A     -0.602152    12A     -0.574157  
      13A     -0.548500    14A     -0.504764    15A     -0.501084  
      16A     -0.457279    17A     -0.452197    18A     -0.439366  
      19A     -0.389268    20A     -0.370008    21A     -0.348860  

    Virtual:                                                              

      22A     -0.000323    23A      0.011379    24A      0.015987  
      25A      0.026455    26A      0.040996    27A      0.046205  
      28A      0.049254    29A      0.055341    30A      0.080708  
      31A      0.084796    32A      0.097154    33A      0.106579  
      34A      0.118014    35A      0.120146    36A      0.130957  
      37A      0.138372    38A      0.147467    39A      0.148340  
      40A      0.160416    41A      0.170686    42A      0.204470  
      43A      0.212857    44A      0.217021    45A      0.222270  
      46A      0.230495    47A      0.240135    48A      0.244586  
      49A      0.259411    50A      0.276342    51A      0.292635  
      52A      0.299070    53A      0.302105    54A      0.313106  
      55A      0.332043    56A      0.345475    57A      0.355203  
      58A      0.367032    59A      0.392482    60A      0.400154  
      61A      0.406310    62A      0.476495    63A      0.492669  
      64A      0.499123    65A      0.513761    66A      0.593749  
      67A      0.613252    68A      0.625395    69A      0.634617  
      70A      0.660354    71A      0.687694    72A      0.699035  
      73A      0.703925    74A      0.707310    75A      0.738027  
      76A      0.743326    77A      0.758146    78A      0.779973  
      79A      0.908218    80A      0.993198    81A      1.021002  
      82A      1.031759    83A      1.065915    84A      1.099473  
      85A      1.145998    86A      1.170315    87A      1.239335  
      88A      1.266349    89A      1.300774    90A      1.320484  
      91A      1.340463    92A      1.409313    93A      1.475876  
      94A      1.497735    95A      1.507847    96A      1.518174  
      97A      1.559180    98A      1.588605    99A      1.601501  
     100A      1.611498   101A      1.626782   102A      1.654324  
     103A      1.662650   104A      1.706928   105A      1.725500  
     106A      1.746690   107A      1.784185   108A      1.787289  
     109A      1.828786   110A      1.865452   111A      1.916512  
     112A      1.937021   113A      2.019460   114A      2.047629  
     115A      2.076755   116A      2.126662   117A      2.164530  
     118A      2.194879   119A      2.214249   120A      2.316346  
     121A      2.337389   122A      2.464817   123A      2.509685  
     124A      2.535267   125A      2.542417   126A      2.546630  
     127A      2.584744   128A      2.596926   129A      2.612470  
     130A      2.620472   131A      2.655610   132A      2.678527  
     133A      2.717080   134A      2.781482   135A      2.889824  
     136A      2.920102   137A      2.964333   138A      3.030429  
     139A      3.081442   140A      3.135328   141A      3.178462  
     142A      3.214710   143A      3.278101   144A      3.351303  
     145A      3.369837   146A      3.522596   147A      3.796165  
     148A      3.831993   149A      3.855908   150A      3.866686  
     151A      3.908172   152A      4.042364   153A      4.089120  
     154A      4.181925   155A      4.306449   156A      5.211960  
     157A      5.218548   158A      5.450017   159A      5.537813  
     160A      5.695887   161A      5.862404   162A     23.832441  
     163A     23.998975   164A     24.048613   165A     50.025696  
     166A     50.052760  

    Final Occupation by Irrep:
              A 
    DOCC [    21 ]

  Energy converged.

  @DF-RKS Final Energy:  -269.53648678556800

   => Energetics <=

    Nuclear Repulsion Energy =            198.3982560429280682
    One-Electron Energy =                -759.6762290376439068
    Two-Electron Energy =                 309.2923328932218965
    DFT Exchange-Correlation Energy =     -17.5508466840741058
    Empirical Dispersion Energy =           0.0000000000000000
    VV10 Nonlocal Energy =                  0.0000000000000000
    Total Energy =                       -269.5364867855680018



Properties will be evaluated at   0.000000,   0.000000,   0.000000 [a0]

Properties computed using the SCF density matrix

  Nuclear Dipole Moment: [e a0]
     X:     1.4598      Y:     0.0037      Z:     1.1247

  Electronic Dipole Moment: [e a0]
     X:    -1.3242      Y:     0.1243      Z:    -0.9969

  Dipole Moment: [e a0]
     X:     0.1356      Y:     0.1280      Z:     0.1277     Total:     0.2261

  Dipole Moment: [D]
     X:     0.3447      Y:     0.3254      Z:     0.3247     Total:     0.5746


*** tstop() called on localhost.localdomain at Tue Mar 19 12:49:47 2019
Module time:
	user time   =     222.65 seconds =       3.71 minutes
	system time =       8.15 seconds =       0.14 minutes
	total time  =          9 seconds =       0.15 minutes
Total time:
	user time   =     974.09 seconds =      16.23 minutes
	system time =      48.29 seconds =       0.80 minutes
	total time  =         43 seconds =       0.72 minutes

*** tstart() called on localhost.localdomain
*** at Tue Mar 19 12:49:47 2019


         ------------------------------------------------------------
                                   SCF GRAD                          
                          Rob Parrish, Justin Turney,                
                       Andy Simmonett, and Alex Sokolov              
         ------------------------------------------------------------

  ==> Geometry <==

    Molecular point group: c1
    Full point group: C1

    Geometry (in Angstrom), charge = 0, multiplicity = 1:

       Center              X                  Y                   Z               Mass       
    ------------   -----------------  -----------------  -----------------  -----------------
         C            0.046980356796    -0.505247024967     0.137294431687    12.000000000000
         O           -0.943133042779    -0.801754994180    -0.817123387581    15.994914619560
         H            0.478110743000    -0.772705724568     2.227103904640     1.007825032070
         H           -1.211666929791    -0.380640414908     1.869107677938     1.007825032070
         H            1.044198644004     2.446004786350    -0.849085590726     1.007825032070
         C            1.033665140292     1.358787182480    -0.922470706032    12.000000000000
         H            0.565316243195     1.064907472510    -1.871511213851     1.007825032070
         H            2.065888816015     0.981429448761    -0.891336058329     1.007825032070
         O            0.291131647575     0.875364968278     0.181536180760    15.994914619560
         H           -1.724239181437    -0.287342584564    -0.587385648272     1.007825032070
         C           -0.342649308853    -0.951952534487     1.531328466345    12.000000000000
         H           -0.593781197014    -2.012736754273     1.526884096183     1.007825032070
         H            0.936713967127    -1.035380622706    -0.220853283162     1.007825032070

  Nuclear repulsion =  198.398256042928068

  ==> Basis Set <==

  Basis Set: 6-311++G(D,P)
    Blend: 6-311++G(D,P)
    Number of shells: 90
    Number of basis function: 166
    Number of Cartesian functions: 171
    Spherical Harmonics?: true
    Max angular momentum: 2

  ==> DFJKGrad: Density-Fitted SCF Gradients <==

    Gradient:                    1
[...]
	total time  =        119 seconds =       1.98 minutes

*** tstart() called on localhost.localdomain
*** at Tue Mar 19 12:51:03 2019


         ------------------------------------------------------------
                                   SCF GRAD                          
                          Rob Parrish, Justin Turney,                
                       Andy Simmonett, and Alex Sokolov              
         ------------------------------------------------------------

  ==> Geometry <==

    Molecular point group: c1
    Full point group: C1

    Geometry (in Angstrom), charge = 0, multiplicity = 1:

       Center              X                  Y                   Z               Mass       
    ------------   -----------------  -----------------  -----------------  -----------------
         C            0.058391869486    -0.510786623167     0.152068533762    12.000000000000
         O           -0.882940171333    -0.782195465514    -0.858201121836    15.994914619560
         H            0.343707482885    -0.763567284183     2.268364421387     1.007825032070
         H           -1.312586928042    -0.365280004863     1.790697041473     1.007825032070
         H            1.169442220387     2.421031547559    -0.754334185447     1.007825032070
         C            0.988164911524     1.361963694890    -0.928331148027    12.000000000000
         H            0.359769054130     1.235992447128    -1.813333316160     1.007825032070
         H            1.945942253503     0.854495682831    -1.094509660852     1.007825032070
         O            0.350587725793     0.856500593598     0.229080795854    15.994914619560
         H           -1.719585569396    -0.383326544108    -0.596010600292     1.007825032070
         C           -0.426052068451    -0.944300852921     1.518178193960    12.000000000000
         H           -0.680025869923    -2.004214330757     1.503976389928     1.007825032070
         H            0.953913675963    -1.065598909106    -0.154115680528     1.007825032070

  Nuclear repulsion =  198.845007473863660

  ==> Basis Set <==

  Basis Set: 6-311++G(D,P)
    Blend: 6-311++G(D,P)
    Number of shells: 90
    Number of basis function: 166
    Number of Cartesian functions: 171
    Spherical Harmonics?: true
    Max angular momentum: 2

  ==> DFJKGrad: Density-Fitted SCF Gradients <==

    Gradient:                    1
    J tasked:                  Yes
    K tasked:                  Yes
    wK tasked:                  No
    OpenMP threads:             32
    Integrals threads:          32
    Memory (MB):               375
    Schwarz Cutoff:          0E+00
    Fitting Condition:       1E-12

   => Auxiliary Basis Set <=

  Basis Set: (6-311++G(D,P) AUX)
    Blend: AUG-CC-PVTZ-JKFIT
    Number of shells: 262
    Number of basis function: 888
    Number of Cartesian functions: 1095
    Spherical Harmonics?: true
    Max angular momentum: 4

  ==> DFT Potential <==

   => Composite Functional: M06-2X <= 

    Hybrid M06-2X Meta-GGA XC Functional

    Y. Zhao and D. G. Truhlar,  Theor. Chem. Acc., 120, 215, 2008


    Deriv               =              1
    GGA                 =           TRUE
    Meta                =           TRUE

    Exchange Hybrid     =           TRUE
    MP2 Hybrid          =          FALSE

   => Exchange Functionals <=

    1.0000   XC_HYB_MGGA_X_M06_2X

   => Exact (HF) Exchange <=

    0.5400               HF 

   => Correlation Functionals <=

    1.0000   XC_MGGA_C_M06_2X

   => Molecular Quadrature <=

    Radial Scheme       =       TREUTLER
    Pruning Scheme      =           FLAT
    Nuclear Scheme      =       TREUTLER

    BS radius alpha     =              1
    Pruning alpha       =              1
    Radial Points       =             75
    Spherical Points    =            302
    Total Points        =         294450
    Total Blocks        =           2235
    Max Points          =            255
    Max Functions       =            166


  -Total Gradient:
     Atom            X                  Y                   Z
    ------   -----------------  -----------------  -----------------
       1        0.000023614383     0.000079096226     0.000031975277
       2       -0.000042095502    -0.000028156432    -0.000023924149
       3       -0.000011482603     0.000013953461     0.000000596690
       4       -0.000008541475     0.000020578949    -0.000007601813
       5       -0.000004193209     0.000017469759    -0.000005141463
       6        0.000016928776     0.000037558666    -0.000053611433
       7       -0.000020813645     0.000006304238    -0.000001423376
       8       -0.000001895266     0.000003895952    -0.000004874208
       9       -0.000046650292    -0.000022112862     0.000040970981
      10       -0.000026697495     0.000012328364    -0.000001974015
      11       -0.000015820017    -0.000011678177    -0.000007844893
      12       -0.000008830329     0.000012012566     0.000004042037
      13       -0.000022826367    -0.000002723854    -0.000002615825


*** tstop() called on localhost.localdomain at Tue Mar 19 12:51:07 2019
Module time:
	user time   =      82.17 seconds =       1.37 minutes
	system time =       3.81 seconds =       0.06 minutes
	total time  =          4 seconds =       0.07 minutes
Total time:
	user time   =    2794.01 seconds =      46.57 minutes
	system time =     118.96 seconds =       1.98 minutes
	total time  =        123 seconds =       2.05 minutes

			-----------------------------------------
			 OPTKING 2.0: for geometry optimizations 
			  - R.A. King,  Bethel University        
			-----------------------------------------

	Previous internal coordinate definitions found.
	---Fragment 1 Geometry and Gradient---
	 C           0.1103446417       -0.9652468301        0.2873678822
	 O          -1.6685151155       -1.4781352122       -1.6217650872
	 H           0.6495130125       -1.4429330511        4.2865875260
	 H          -2.4804298196       -0.6902791710        3.3839269954
	 H           2.2099255248        4.5750865840       -1.4254850232
	 C           1.8673610569        2.5737383863       -1.7542916304
	 H           0.6798649834        2.3356872274       -3.4267033552
	 H           3.6772979295        1.6147628223       -2.0683235088
	 O           0.6625147873        1.6185515546        0.4328999665
	 H          -3.2495457882       -0.7243821878       -1.1262968068
	 C          -0.8051217277       -1.7844699991        2.8689410075
	 H          -1.2850626574       -3.7874161967        2.8421034873
	 H           1.8026356020       -2.0136901057       -0.2912364290
	             0.0000236144        0.0000790962        0.0000319753
	            -0.0000420955       -0.0000281564       -0.0000239241
	            -0.0000114826        0.0000139535        0.0000005967
	            -0.0000085415        0.0000205789       -0.0000076018
	            -0.0000041932        0.0000174698       -0.0000051415
	             0.0000169288        0.0000375587       -0.0000536114
	            -0.0000208136        0.0000063042       -0.0000014234
	            -0.0000018953        0.0000038960       -0.0000048742
	            -0.0000466503       -0.0000221129        0.0000409710
	            -0.0000266975        0.0000123284       -0.0000019740
	            -0.0000158200       -0.0000116782       -0.0000078449
	            -0.0000088303        0.0000120126        0.0000040420
	            -0.0000228264       -0.0000027239       -0.0000026158

	---Fragment 1 Intrafragment Coordinates---
	 - Coordinate -           - BOHR/RAD -       - ANG/DEG -
	 R(1,2)           =         2.659358	       1.407272
	 R(1,9)           =         2.646145	       1.400280
	 R(1,11)          =         2.858973	       1.512903
	 R(1,13)          =         2.073129	       1.097053
	 R(2,10)          =         1.820245	       0.963232
	 R(3,11)          =         2.059692	       1.089942
	 R(4,11)          =         2.066185	       1.093378
	 R(5,6)           =         2.056905	       1.088467
	 R(6,7)           =         2.064891	       1.092693
	 R(6,8)           =         2.072226	       1.096575
	 R(6,9)           =         2.673545	       1.414779
	 R(11,12)         =         2.059820	       1.090010
	 B(1,2,10)        =         1.881498	     107.801890
	 B(1,9,6)         =         1.980024	     113.447005
	 B(1,11,3)        =         1.926063	     110.355279
	 B(1,11,4)        =         1.910224	     109.447766
	 B(1,11,12)       =         1.919284	     109.966881
	 B(2,1,9)         =         1.946987	     111.554150
	 B(2,1,11)        =         1.959279	     112.258406
	 B(2,1,13)        =         1.821544	     104.366805
	 B(3,11,4)        =         1.889431	     108.256433
	 B(3,11,12)       =         1.912150	     109.558147
	 B(4,11,12)       =         1.906330	     109.224680
	 B(5,6,7)         =         1.914971	     109.719737
	 B(5,6,8)         =         1.906080	     109.210355
	 B(5,6,9)         =         1.867011	     106.971861
	 B(7,6,8)         =         1.903085	     109.038756
	 B(7,6,9)         =         1.941462	     111.237563
	 B(8,6,9)         =         1.930772	     110.625115
	 B(9,1,11)        =         1.872293	     107.274471
	 B(9,1,13)        =         1.916466	     109.805439
	 B(11,1,13)       =         1.948178	     111.622399
	 D(1,9,6,5)       =        -3.136442	    -179.704896
	 D(1,9,6,7)       =         1.055699	      60.487081
	 D(1,9,6,8)       =        -1.062199	     -60.859525
	 D(2,1,9,6)       =        -1.131203	     -64.813140
	 D(2,1,11,3)      =         3.094810	     177.319541
	 D(2,1,11,4)      =        -1.110811	     -63.644796
	 D(2,1,11,12)     =         0.983368	      56.342864
	 D(3,11,1,9)      =        -1.043587	     -59.793152
	 D(3,11,1,13)     =         1.056540	      60.535297
	 D(4,11,1,9)      =         1.033977	      59.242511
	 D(4,11,1,13)     =         3.134104	     179.570960
	 D(6,9,1,11)      =         2.999614	     171.865197
	 D(6,9,1,13)      =         0.879450	      50.388780
	 D(9,1,2,10)      =        -1.164001	     -66.692338
	 D(9,1,11,12)     =         3.128157	     179.230171
	 D(10,2,1,11)     =         0.938090	      53.748611
	 D(10,2,1,13)     =         3.050878	     174.802445
	 D(12,11,1,13)    =        -1.054901	     -60.441380

	Current energy   :      -269.5370892993

	Energy change for the previous step:
		Projected    :         0.0000001669
		Actual       :        -0.0000001355

	Performing BFGS update.
	Previous computed or guess Hessian on step 1.
	Steps to be used in Hessian update: 8 7
	Taking RFO optimization step.
	Going to follow RFO solution 1.
	Using RFO vector 1.
	Norm of target step-size    0.00174
	Projected energy change by RFO approximation:        -0.0000002127

	Back-transformation to cartesian coordinates...
	Successfully converged to displaced geometry.

	--- Internal Coordinate Step in ANG or DEG, aJ/ANG or AJ/DEG ---
	 ---------------------------------------------------------------------------
	   Coordinate                Previous        Force       Change         New 
	   ----------                --------       ------       ------       ------
	    1 R(1,2)          =      1.407272    -0.000430    -0.000079     1.407192
	    2 R(1,9)          =      1.400280    -0.000007     0.000020     1.400300
	    3 R(1,11)         =      1.512903     0.000033     0.000001     1.512904
	    4 R(1,13)         =      1.097053     0.000006    -0.000003     1.097049
	    5 R(2,10)         =      0.963232    -0.000096    -0.000022     0.963210
	    6 R(3,11)         =      1.089942    -0.000014    -0.000003     1.089939
	    7 R(4,11)         =      1.093378     0.000007    -0.000003     1.093375
	    8 R(5,6)          =      1.088467    -0.000082    -0.000022     1.088446
	    9 R(6,7)          =      1.092693    -0.000015    -0.000016     1.092677
	   10 R(6,8)          =      1.096575    -0.000099    -0.000035     1.096540
	   11 R(6,9)          =      1.414779    -0.000548    -0.000100     1.414679
	   12 R(11,12)        =      1.090010    -0.000000    -0.000001     1.090008
	   13 B(1,2,10)       =    107.801890    -0.000001    -0.003702   107.798188
	   14 B(1,9,6)        =    113.447005    -0.000002    -0.002721   113.444283
	   15 B(1,11,3)       =    110.355279    -0.000000    -0.001665   110.353614
	   16 B(1,11,4)       =    109.447766     0.000001     0.005686   109.453453
	   17 B(1,11,12)      =    109.966881    -0.000000    -0.001523   109.965358
	   18 B(2,1,9)        =    111.554150    -0.000002    -0.007765   111.546385
	   19 B(2,1,11)       =    112.258406     0.000002     0.006835   112.265242
	   20 B(2,1,13)       =    104.366805     0.000000     0.002685   104.369490
	   21 B(3,11,4)       =    108.256433    -0.000000     0.000590   108.257023
	   22 B(3,11,12)      =    109.558147     0.000000     0.000725   109.558873
	   23 B(4,11,12)      =    109.224680    -0.000000    -0.003803   109.220877
	   24 B(5,6,7)        =    109.719737    -0.000000    -0.003698   109.716040
	   25 B(5,6,8)        =    109.210355     0.000000     0.001095   109.211449
	   26 B(5,6,9)        =    106.971861    -0.000000    -0.000802   106.971059
	   27 B(7,6,8)        =    109.038756    -0.000000    -0.004217   109.034539
	   28 B(7,6,9)        =    111.237563     0.000001     0.005911   111.243474
	   29 B(8,6,9)        =    110.625115     0.000000     0.001702   110.626817
	   30 B(9,1,11)       =    107.274471    -0.000000    -0.002198   107.272273
	   31 B(9,1,13)       =    109.805439    -0.000000    -0.004619   109.800820
	   32 B(11,1,13)      =    111.622399     0.000000     0.004918   111.627316
	   33 D(1,9,6,5)      =   -179.704896    -0.000000    -0.042993  -179.747889
	   34 D(1,9,6,7)      =     60.487081    -0.000000    -0.041389    60.445692
	   35 D(1,9,6,8)      =    -60.859525    -0.000000    -0.041208   -60.900733
	   36 D(2,1,9,6)      =    -64.813140     0.000000     0.035851   -64.777289
	   37 D(2,1,11,3)     =    177.319541     0.000000     0.006227   177.325768
	   38 D(2,1,11,4)     =    -63.644796     0.000000     0.009464   -63.635332
	   39 D(2,1,11,12)    =     56.342864     0.000000     0.007390    56.350254
	   40 D(3,11,1,9)     =    -59.793152    -0.000000    -0.000678   -59.793830
	   41 D(3,11,1,13)    =     60.535297    -0.000000    -0.004848    60.530449
	   42 D(4,11,1,9)     =     59.242511    -0.000000     0.002559    59.245070
	   43 D(4,11,1,13)    =    179.570960    -0.000000    -0.001611   179.569349
	   44 D(6,9,1,11)     =    171.865197     0.000000     0.033722   171.898918
	   45 D(6,9,1,13)     =     50.388780     0.000000     0.031804    50.420585
	   46 D(9,1,2,10)     =    -66.692338    -0.000000    -0.013698   -66.706036
	   47 D(9,1,11,12)    =    179.230171    -0.000000     0.000485   179.230656
	   48 D(10,2,1,11)    =     53.748611    -0.000000    -0.017240    53.731371
	   49 D(10,2,1,13)    =    174.802445     0.000000    -0.005861   174.796584
	   50 D(12,11,1,13)   =    -60.441380    -0.000000    -0.003685   -60.445065
	 ---------------------------------------------------------------------------
	Successfully symmetrized geometry.

  ==> Convergence Check <==

  Measures of convergence in internal coordinates in au.
  Criteria marked as inactive (o), active & met (*), and active & unmet ( ).
  ---------------------------------------------------------------------------------------------
   Step     Total Energy     Delta E     MAX Force     RMS Force      MAX Disp      RMS Disp   
  ---------------------------------------------------------------------------------------------
    Convergence Criteria    1.00e-06 *    3.00e-04 *             o    1.20e-03 *             o
  ---------------------------------------------------------------------------------------------
      9    -269.53708930   -1.36e-07 *    6.66e-05 *    1.50e-05 o    7.50e-04 *    2.47e-04 o  ~
  ---------------------------------------------------------------------------------------------


  **** Optimization is complete! (in 9 steps) ****

  ==> Optimization Summary <==

  Measures of convergence in internal coordinates in au.
  --------------------------------------------------------------------------------------------------------------- ~
   Step         Total Energy             Delta E       MAX Force       RMS Force        MAX Disp        RMS Disp  ~
  --------------------------------------------------------------------------------------------------------------- ~
      1    -269.534029238024   -269.534029238024      0.00352173      0.00091159      0.27764385      0.07150335  ~
      2    -269.534461422576     -0.000432184553      0.02078703      0.00489719      0.05675165      0.01745867  ~
      3    -269.536486785568     -0.002025362992      0.00292040      0.00089722      0.06364683      0.01769640  ~
      4    -269.536775180971     -0.000288395403      0.00182477      0.00041717      0.05035555      0.01769166  ~
      5    -269.536942500941     -0.000167319970      0.00097189      0.00031900      0.05128249      0.01768643  ~
      6    -269.537043461780     -0.000100960840      0.00111399      0.00028729      0.04793229      0.01767179  ~
      7    -269.537086585387     -0.000043123607      0.00044191      0.00010216      0.01002639      0.00415391  ~
      8    -269.537089163750     -0.000002578363      0.00017837      0.00004632      0.00276288      0.00081675  ~
      9    -269.537089299289     -0.000000135539      0.00006656      0.00001497      0.00075037      0.00024654  ~
  --------------------------------------------------------------------------------------------------------------- ~

	Writing optimization data to binary file.
	Final energy is   -269.5370892992893
	Final (previous) structure:
	Cartesian Geometry (in Angstrom)
	    C     0.0583918695  -0.5107866232   0.1520685338
	    O    -0.8829401713  -0.7821954655  -0.8582011218
	    H     0.3437074829  -0.7635672842   2.2683644214
	    H    -1.3125869280  -0.3652800049   1.7906970415
	    H     1.1694422204   2.4210315476  -0.7543341854
	    C     0.9881649115   1.3619636949  -0.9283311480
	    H     0.3597690541   1.2359924471  -1.8133333162
	    H     1.9459422535   0.8544956828  -1.0945096609
	    O     0.3505877258   0.8565005936   0.2290807959
	    H    -1.7195855694  -0.3833265441  -0.5960106003
	    C    -0.4260520685  -0.9443008529   1.5181781940
	    H    -0.6800258699  -2.0042143308   1.5039763899
	    H     0.9539136760  -1.0655989091  -0.1541156805
	Saving final (previous) structure.
	Removing binary optimization data file.
			--------------------------
			 OPTKING Finished Execution 
			--------------------------

    Final optimized geometry and variables:
    Molecular point group: c1
    Full point group: C1

    Geometry (in Angstrom), charge = 0, multiplicity = 1:

    C            0.058391869486    -0.510786623167     0.152068533762
    O           -0.882940171333    -0.782195465514    -0.858201121836
    H            0.343707482885    -0.763567284183     2.268364421387
    H           -1.312586928042    -0.365280004863     1.790697041473
    H            1.169442220387     2.421031547559    -0.754334185447
    C            0.988164911524     1.361963694890    -0.928331148027
    H            0.359769054130     1.235992447128    -1.813333316160
    H            1.945942253503     0.854495682831    -1.094509660852
    O            0.350587725793     0.856500593598     0.229080795854
    H           -1.719585569396    -0.383326544108    -0.596010600292
    C           -0.426052068451    -0.944300852921     1.518178193960
    H           -0.680025869923    -2.004214330757     1.503976389928
    H            0.953913675963    -1.065598909106    -0.154115680528

	Removing binary optimization data file.
	Cleaning optimization helper files.

    Psi4 stopped on: Tuesday, 19 March 2019 12:51PM
    Psi4 wall time for execution: 0:02:03.09

*** Psi4 exiting successfully. Buy a developer a beer!
