
    -----------------------------------------------------------------------
          Psi4: An Open-Source Ab Initio Electronic Structure Package
                               Psi4 1.2.1 release

                         Git: Rev {HEAD} 406f4de 


    R. M. Parrish, L. A. Burns, D. G. A. Smith, A. C. Simmonett,
    A. E. DePrince III, E. G. Hohenstein, U. Bozkaya, A. Yu. Sokolov,
    R. Di Remigio, R. M. Richard, J. F. Gonthier, A. M. James,
    H. R. McAlexander, A. Kumar, M. Saitow, X. Wang, B. P. Pritchard,
    P. Verma, H. F. Schaefer III, K. Patkowski, R. A. King, E. F. Valeev,
    F. A. Evangelista, J. M. Turney, T. D. Crawford, and C. D. Sherrill,
    J. Chem. Theory Comput. 13(7) pp 3185--3197 (2017).
    (doi: 10.1021/acs.jctc.7b00174)


                         Additional Contributions by
    P. Kraus, H. Kruse, M. H. Lechner, M. C. Schieber, and R. A. Shaw

    -----------------------------------------------------------------------


    Psi4 started on: Thursday, 17 January 2019 12:18PM

    Process ID: 10427
    Host:       localhost.localdomain
    PSIDATADIR: /root/psi4conda/share/psi4
    Memory:     500.0 MiB
    Threads:    1
    
  ==> Input File <==

--------------------------------------------------------------------------
molecule{
0 1
    C           -0.036462680314    -0.723683554130     0.092533024763
    O           -1.095730032479    -0.765226363212    -0.671670906753
    H            0.715155397527    -0.716144352256     2.117684133378
    H           -1.048437370072    -0.461731330943     1.947694249656
    H            1.009426883401     2.456861203234    -1.093603233550
    C            1.205171707811     1.418682068159    -0.827950895574
    H            1.327774003395     0.821422411390    -1.737008204778
    H            2.111309173268     1.366216671251    -0.224377102372
    O            0.108954321354     0.938118808173    -0.056947628683
    H           -0.783230166478     0.533596177120    -0.652826365660
    C           -0.180937356454    -0.997974733242     1.563335646612
    H           -0.352621651038    -2.070300409426     1.684973199517
    H            0.920242285339    -1.066362999473    -0.336706894028
 
}

set{
   basis 6-311++G(d,p)
   freeze_core True
   normal_modes_write True
}


set_num_threads(16)
frequencies('m06-2x')
--------------------------------------------------------------------------
  Threads set to 16 by Python driver.
gradient() will perform analytic gradient computation.

*** tstart() called on localhost.localdomain
*** at Thu Jan 17 12:18:12 2019

   => Loading Basis Set <=

    Name: 6-311++G(D,P)
    Role: ORBITAL
    Keyword: BASIS
    atoms 1, 6, 11            entry C          line   119 file /root/psi4conda/share/psi4/basis/6-311ppg_d_p_.gbs 
    atoms 2, 9                entry O          line   161 file /root/psi4conda/share/psi4/basis/6-311ppg_d_p_.gbs 
    atoms 3-5, 7-8, 10, 12-13 entry H          line    42 file /root/psi4conda/share/psi4/basis/6-311ppg_d_p_.gbs 


         ---------------------------------------------------------
                                   SCF
            by Justin Turney, Rob Parrish, Andy Simmonett
                             and Daniel Smith
                              RKS Reference
                       16 Threads,    500 MiB Core
         ---------------------------------------------------------

  ==> Geometry <==

    Molecular point group: c1
    Full point group: C1

    Geometry (in Angstrom), charge = 0, multiplicity = 1:

       Center              X                  Y                   Z               Mass       
    ------------   -----------------  -----------------  -----------------  -----------------
         C           -0.036462680314    -0.723683554130     0.092533024763    12.000000000000
         O           -1.095730032479    -0.765226363212    -0.671670906753    15.994914619560
         H            0.715155397527    -0.716144352256     2.117684133378     1.007825032070
         H           -1.048437370072    -0.461731330943     1.947694249656     1.007825032070
         H            1.009426883401     2.456861203234    -1.093603233550     1.007825032070
         C            1.205171707811     1.418682068159    -0.827950895574    12.000000000000
         H            1.327774003395     0.821422411390    -1.737008204778     1.007825032070
         H            2.111309173268     1.366216671251    -0.224377102372     1.007825032070
         O            0.108954321354     0.938118808173    -0.056947628683    15.994914619560
         H           -0.783230166478     0.533596177120    -0.652826365660     1.007825032070
         C           -0.180937356454    -0.997974733242     1.563335646612    12.000000000000
         H           -0.352621651038    -2.070300409426     1.684973199517     1.007825032070
         H            0.920242285339    -1.066362999473    -0.336706894028     1.007825032070

  Running in c1 symmetry.

  Rotational constants: A =      0.28051  B =      0.11886  C =      0.09501 [cm^-1]
  Rotational constants: A =   8409.35149  B =   3563.32964  C =   2848.32043 [MHz]
  Nuclear repulsion =  195.930315679609151

  Charge       = 0
  Multiplicity = 1
  Electrons    = 42
  Nalpha       = 21
  Nbeta        = 21

  ==> Algorithm <==

  SCF Algorithm Type is DF.
  DIIS enabled.
  MOM disabled.
  Fractional occupation disabled.
  Guess Type is SAD.
  Energy threshold   = 1.00e-08
  Density threshold  = 1.00e-08
  Integral threshold = 0.00e+00

  ==> Primary Basis <==

  Basis Set: 6-311++G(D,P)
    Blend: 6-311++G(D,P)
    Number of shells: 90
    Number of basis function: 166
    Number of Cartesian functions: 171
    Spherical Harmonics?: true
    Max angular momentum: 2

  ==> DFT Potential <==

   => Composite Functional: M06-2X <= 

    Hybrid M06-2X Meta-GGA XC Functional

    Y. Zhao and D. G. Truhlar,  Theor. Chem. Acc., 120, 215, 2008


    Deriv               =              1
    GGA                 =           TRUE
    Meta                =           TRUE

    Exchange Hybrid     =           TRUE
    MP2 Hybrid          =          FALSE

   => Exchange Functionals <=

    1.0000   XC_HYB_MGGA_X_M06_2X

   => Exact (HF) Exchange <=

    0.5400               HF 

   => Correlation Functionals <=

    1.0000   XC_MGGA_C_M06_2X

   => Molecular Quadrature <=

    Radial Scheme       =       TREUTLER
    Pruning Scheme      =           FLAT
    Nuclear Scheme      =       TREUTLER

    BS radius alpha     =              1
    Pruning alpha       =              1
    Radial Points       =             75
    Spherical Points    =            302
    Total Points        =         294450
    Total Blocks        =           2248
    Max Points          =            256
    Max Functions       =            166

   => Loading Basis Set <=

    Name: (6-311++G(D,P) AUX)
    Role: JKFIT
    Keyword: DF_BASIS_SCF
    atoms 1, 6, 11            entry C          line   162 file /root/psi4conda/share/psi4/basis/aug-cc-pvtz-jkfit.gbs 
    atoms 2, 9                entry O          line   286 file /root/psi4conda/share/psi4/basis/aug-cc-pvtz-jkfit.gbs 
    atoms 3-5, 7-8, 10, 12-13 entry H          line    70 file /root/psi4conda/share/psi4/basis/aug-cc-pvtz-jkfit.gbs 

  ==> Pre-Iterations <==

   -------------------------------------------------------
    Irrep   Nso     Nmo     Nalpha   Nbeta   Ndocc  Nsocc
   -------------------------------------------------------
     A        166     166       0       0       0       0
   -------------------------------------------------------
    Total     166     166      21      21      21       0
   -------------------------------------------------------

  ==> Integral Setup <==

  DFHelper Memory: AOs need 0.234 [GiB]; user supplied 0.366 [GiB]. Using in-core AOs.

  ==> MemDFJK: Density-Fitted J/K Matrices <==

    J tasked:                   Yes
    K tasked:                   Yes
    wK tasked:                   No
    OpenMP threads:              16
    Memory (MB):                375
    Algorithm:                 Core
    Schwarz Cutoff:           1E-12
    Mask sparsity (%):       1.9669
    Fitting Condition:        1E-12

   => Auxiliary Basis Set <=

  Basis Set: (6-311++G(D,P) AUX)
    Blend: AUG-CC-PVTZ-JKFIT
    Number of shells: 262
    Number of basis function: 888
    Number of Cartesian functions: 1095
    Spherical Harmonics?: true
    Max angular momentum: 4

  Minimum eigenvalue in the overlap matrix is 6.2278837846E-05.
  Using Symmetric Orthogonalization.

  SCF Guess: Superposition of Atomic Densities via on-the-fly atomic UHF.

  ==> Iterations <==

                           Total Energy        Delta E     RMS |[F,P]|

   @DF-RKS iter   0:  -270.66890723968902   -2.70669e+02   6.10891e-02 
   @DF-RKS iter   1:  -269.35141376461667    1.31749e+00   1.12669e-02 
   @DF-RKS iter   2:  -269.35966813453422   -8.25437e-03   1.19129e-02 DIIS
   @DF-RKS iter   3:  -269.45854339787297   -9.88753e-02   1.49276e-03 DIIS
   @DF-RKS iter   4:  -269.46036363913890   -1.82024e-03   7.41051e-04 DIIS
   @DF-RKS iter   5:  -269.46085923977836   -4.95601e-04   2.84056e-04 DIIS
   @DF-RKS iter   6:  -269.46090906719826   -4.98274e-05   7.88906e-05 DIIS
   @DF-RKS iter   7:  -269.46092202884950   -1.29617e-05   1.50622e-05 DIIS
   @DF-RKS iter   8:  -269.46092262753825   -5.98689e-07   5.80601e-06 DIIS
   @DF-RKS iter   9:  -269.46092268345416   -5.59159e-08   2.05752e-06 DIIS
   @DF-RKS iter  10:  -269.46092268864828   -5.19412e-09   3.40681e-07 DIIS
   @DF-RKS iter  11:  -269.46092268905835   -4.10068e-10   1.16928e-07 DIIS
   @DF-RKS iter  12:  -269.46092268909354   -3.51861e-11   5.41531e-08 DIIS
   @DF-RKS iter  13:  -269.46092268909990   -6.36646e-12   1.29918e-08 DIIS
   @DF-RKS iter  14:  -269.46092268910076   -8.52651e-13   2.84302e-09 DIIS

  ==> Post-Iterations <==

    Orbital Energies [Eh]
    ---------------------

    Doubly Occupied:                                                      

       1A    -19.673355     2A    -19.573152     3A    -10.654090  
       4A    -10.606080     5A    -10.534831     6A     -1.213076  
       7A     -1.099635     8A     -0.848315     9A     -0.807100  
      10A     -0.685322    11A     -0.626720    12A     -0.571329  
      13A     -0.554836    14A     -0.521821    15A     -0.488154  
      16A     -0.479122    17A     -0.448447    18A     -0.443225  
      19A     -0.418101    20A     -0.341358    21A     -0.317247  

    Virtual:                                                              

      22A     -0.007244    23A      0.010284    24A      0.016472  
      25A      0.023452    26A      0.038580    27A      0.042979  
      28A      0.050501    29A      0.058156    30A      0.064024  
      31A      0.069865    32A      0.097547    33A      0.103315  
      34A      0.111955    35A      0.117978    36A      0.121193  
      37A      0.127929    38A      0.139370    39A      0.143765  
      40A      0.153163    41A      0.156870    42A      0.168801  
      43A      0.192140    44A      0.205627    45A      0.214655  
      46A      0.222444    47A      0.236600    48A      0.243796  
      49A      0.248726    50A      0.260978    51A      0.284424  
      52A      0.296055    53A      0.310218    54A      0.319472  
      55A      0.338101    56A      0.344264    57A      0.351577  
      58A      0.354973    59A      0.376706    60A      0.434583  
      61A      0.439834    62A      0.471092    63A      0.477266  
      64A      0.497792    65A      0.526863    66A      0.549265  
      67A      0.562871    68A      0.607308    69A      0.620296  
      70A      0.657336    71A      0.675289    72A      0.687892  
      73A      0.689933    74A      0.701915    75A      0.723397  
      76A      0.743383    77A      0.746961    78A      0.774664  
      79A      0.881237    80A      0.952170    81A      0.987704  
      82A      1.038174    83A      1.069646    84A      1.095626  
      85A      1.130438    86A      1.206820    87A      1.235500  
      88A      1.248424    89A      1.260970    90A      1.302701  
      91A      1.353802    92A      1.395381    93A      1.470077  
      94A      1.484147    95A      1.487420    96A      1.508848  
      97A      1.546650    98A      1.574375    99A      1.588379  
     100A      1.604938   101A      1.615076   102A      1.637030  
     103A      1.670931   104A      1.679272   105A      1.732486  
     106A      1.739950   107A      1.758902   108A      1.778229  
     109A      1.794317   110A      1.882343   111A      1.903514  
     112A      1.956392   113A      1.972023   114A      2.022480  
     115A      2.074256   116A      2.100845   117A      2.163761  
     118A      2.201527   119A      2.233067   120A      2.319876  
     121A      2.379491   122A      2.454803   123A      2.503110  
     124A      2.524468   125A      2.528534   126A      2.568666  
     127A      2.585010   128A      2.587554   129A      2.608273  
     130A      2.615161   131A      2.635008   132A      2.677744  
     133A      2.727006   134A      2.765205   135A      2.845572  
     136A      2.894426   137A      2.943546   138A      2.969183  
     139A      3.024691   140A      3.136779   141A      3.165038  
     142A      3.201683   143A      3.230221   144A      3.412676  
     145A      3.493624   146A      3.587625   147A      3.742397  
     148A      3.808821   149A      3.839648   150A      3.850096  
     151A      3.879074   152A      3.930987   153A      4.031722  
     154A      4.114513   155A      4.281299   156A      5.220099  
     157A      5.268577   158A      5.326142   159A      5.331281  
     160A      5.643390   161A      5.796442   162A     23.870014  
     163A     23.975030   164A     24.045308   165A     49.998555  
     166A     50.133767  

    Final Occupation by Irrep:
              A 
    DOCC [    21 ]

  Energy converged.

  @DF-RKS Final Energy:  -269.46092268910076

   => Energetics <=

    Nuclear Repulsion Energy =            195.9303156796091514
    One-Electron Energy =                -754.5261342581771942
    Two-Electron Energy =                 306.6673978732981141
    DFT Exchange-Correlation Energy =     -17.5325019838308300
    Empirical Dispersion Energy =           0.0000000000000000
    VV10 Nonlocal Energy =                  0.0000000000000000
    Total Energy =                       -269.4609226891007552



Properties will be evaluated at   0.000000,   0.000000,   0.000000 [a0]

Properties computed using the SCF density matrix

  Nuclear Dipole Moment: [e a0]
     X:     3.6510      Y:     0.8104      Z:     1.5957

  Electronic Dipole Moment: [e a0]
     X:    -2.3594      Y:    -0.2312      Z:    -1.3397

  Dipole Moment: [e a0]
     X:     1.2916      Y:     0.5792      Z:     0.2560     Total:     1.4385

  Dipole Moment: [D]
     X:     3.2830      Y:     1.4721      Z:     0.6506     Total:     3.6563


*** tstop() called on localhost.localdomain at Thu Jan 17 12:18:31 2019
Module time:
	user time   =     235.60 seconds =       3.93 minutes
	system time =       5.85 seconds =       0.10 minutes
	total time  =         19 seconds =       0.32 minutes
Total time:
	user time   =     235.60 seconds =       3.93 minutes
	system time =       5.85 seconds =       0.10 minutes
	total time  =         19 seconds =       0.32 minutes

*** tstart() called on localhost.localdomain
*** at Thu Jan 17 12:18:31 2019


         ------------------------------------------------------------
                                   SCF GRAD                          
                          Rob Parrish, Justin Turney,                
                       Andy Simmonett, and Alex Sokolov              
         ------------------------------------------------------------

  ==> Geometry <==

    Molecular point group: c1
    Full point group: C1

    Geometry (in Angstrom), charge = 0, multiplicity = 1:

       Center              X                  Y                   Z               Mass       
    ------------   -----------------  -----------------  -----------------  -----------------
         C           -0.036462680314    -0.723683554130     0.092533024763    12.000000000000
         O           -1.095730032479    -0.765226363212    -0.671670906753    15.994914619560
         H            0.715155397527    -0.716144352256     2.117684133378     1.007825032070
         H           -1.048437370072    -0.461731330943     1.947694249656     1.007825032070
         H            1.009426883401     2.456861203234    -1.093603233550     1.007825032070
         C            1.205171707811     1.418682068159    -0.827950895574    12.000000000000
         H            1.327774003395     0.821422411390    -1.737008204778     1.007825032070
         H            2.111309173268     1.366216671251    -0.224377102372     1.007825032070
         O            0.108954321354     0.938118808173    -0.056947628683    15.994914619560
         H           -0.783230166478     0.533596177120    -0.652826365660     1.007825032070
         C           -0.180937356454    -0.997974733242     1.563335646612    12.000000000000
         H           -0.352621651038    -2.070300409426     1.684973199517     1.007825032070
         H            0.920242285339    -1.066362999473    -0.336706894028     1.007825032070

  Nuclear repulsion =  195.930315679609151

  ==> Basis Set <==

  Basis Set: 6-311++G(D,P)
    Blend: 6-311++G(D,P)
    Number of shells: 90
    Number of basis function: 166
    Number of Cartesian functions: 171
    Spherical Harmonics?: true
    Max angular momentum: 2

  ==> DFJKGrad: Density-Fitted SCF Gradients <==

    Gradient:                    1
    J tasked:                  Yes
    K tasked:                  Yes
    wK tasked:                  No
    OpenMP threads:             16
    Integrals threads:          16
    Memory (MB):               375
    Schwarz Cutoff:          0E+00
    Fitting Condition:       1E-12

   => Auxiliary Basis Set <=

  Basis Set: (6-311++G(D,P) AUX)
    Blend: AUG-CC-PVTZ-JKFIT
    Number of shells: 262
    Number of basis function: 888
    Number of Cartesian functions: 1095
    Spherical Harmonics?: true
    Max angular momentum: 4

  ==> DFT Potential <==

   => Composite Functional: M06-2X <= 

    Hybrid M06-2X Meta-GGA XC Functional

    Y. Zhao and D. G. Truhlar,  Theor. Chem. Acc., 120, 215, 2008


    Deriv               =              1
    GGA                 =           TRUE
    Meta                =           TRUE

    Exchange Hybrid     =           TRUE
    MP2 Hybrid          =          FALSE

   => Exchange Functionals <=

    1.0000   XC_HYB_MGGA_X_M06_2X

   => Exact (HF) Exchange <=

    0.5400               HF 

   => Correlation Functionals <=

    1.0000   XC_MGGA_C_M06_2X

   => Molecular Quadrature <=

    Radial Scheme       =       TREUTLER
    Pruning Scheme      =           FLAT
    Nuclear Scheme      =       TREUTLER

    BS radius alpha     =              1
    Pruning alpha       =              1
    Radial Points       =             75
    Spherical Points    =            302
    Total Points        =         294450
    Total Blocks        =           2248
    Max Points          =            256
    Max Functions       =            166


  -Total Gradient:
     Atom            X                  Y                   Z
    ------   -----------------  -----------------  -----------------
       1        0.000103956089    -0.000054394176     0.000123169975
       2       -0.000066549736     0.000125836801    -0.000052221647
       3       -0.000007946244     0.000007168893     0.000038062216
       4       -0.000009607644     0.000007082080     0.000004800580
       5        0.000011236326    -0.000040323510    -0.000019598165
       6       -0.000017491766    -0.000055330073    -0.000006452085
       7        0.000019138619    -0.000050518780    -0.000000089341
       8        0.000019016435    -0.000025296819     0.000000328736
       9        0.000201367132    -0.000028243037     0.000162776036
      10       -0.000244024145    -0.000202994555    -0.000127052614
      11        0.000025055464     0.000052840200    -0.000085955137
      12       -0.000010524845     0.000003434237     0.000029133823
      13        0.000007062272    -0.000011386439     0.000083886368


*** tstop() called on localhost.localdomain at Thu Jan 17 12:18:37 2019
Module time:
	user time   =      68.15 seconds =       1.14 minutes
	system time =       3.29 seconds =       0.05 minutes
	total time  =          6 seconds =       0.10 minutes
Total time:
	user time   =     303.79 seconds =       5.06 minutes
	system time =       9.14 seconds =       0.15 minutes
	total time  =         25 seconds =       0.42 minutes

  Based on options and gradient (rms=1.33E-04), recommend projecting translations and projecting rotations.
hessian() will perform frequency computation by finite difference of analytic gradients.

-------------------------------------------------------------

  Using finite-differences of gradients to determine vibrational frequencies and 
  normal modes.  Resulting frequencies are only valid at stationary points.
	Generating geometries for use with 3-point formula.
	Displacement size will be 5.00e-03.
	Number of atoms is 13.
	Number of irreps is 1.
	Number of SALCS is 33.
	Translations projected? 1. Rotations projected? 1.
	Index of salcs per irrep:
	 1 :  0  1  2  3  4  5  6  7  8  9  10  11  12  13  14  15  16  17  18  19  20  21  22  23  24  25  26  27  28  29  30  31  32 
	Number of SALC's per irrep:
		 Irrep 1: 33
	Number of geometries (including reference) is 67.
	Number of displacements per irrep:
	  Irrep 1: 66

  //>>>>>>>>>>>>>>>>>>>>>>>>>>>>>>>>>>>//
  //    Loading displacement 1 of 67   //
  //<<<<<<<<<<<<<<<<<<<<<<<<<<<<<<<<<<<//
gradient() will perform analytic gradient computation.

*** tstart() called on localhost.localdomain
*** at Thu Jan 17 12:18:37 2019

   => Loading Basis Set <=

    Name: 6-311++G(D,P)
    Role: ORBITAL
    Keyword: BASIS
    atoms 1, 6, 11            entry C          line   119 file /root/psi4conda/share/psi4/basis/6-311ppg_d_p_.gbs 
    atoms 2, 9                entry O          line   161 file /root/psi4conda/share/psi4/basis/6-311ppg_d_p_.gbs 
    atoms 3-5, 7-8, 10, 12-13 entry H          line    42 file /root/psi4conda/share/psi4/basis/6-311ppg_d_p_.gbs 


         ---------------------------------------------------------
                                   SCF
            by Justin Turney, Rob Parrish, Andy Simmonett
                             and Daniel Smith
                              RKS Reference
                       16 Threads,    500 MiB Core
         ---------------------------------------------------------

  ==> Geometry <==

    Molecular point group: c1
    Full point group: C1

    Geometry (in Angstrom), charge = 0, multiplicity = 1:

       Center              X                  Y                   Z               Mass       
    ------------   -----------------  -----------------  -----------------  -----------------
         C           -0.037141894279    -0.723685043701     0.092538785598    12.000000000000
         O           -1.095535446615    -0.765301397607    -0.671681768301    15.994914619560
         H            0.715302155402    -0.716080654381     2.117701881222     1.007825032070
         H           -1.048303940671    -0.461780413299     1.947681485333     1.007825032070
         H            1.009424908977     2.456915312900    -1.093608588938     1.007825032070
         C            1.205230986543     1.418750859449    -0.827944008767    12.000000000000
         H            1.327885549423     0.821490968378    -1.736994114872     1.007825032070
         H            2.111362083730     1.366347935791    -0.224355224504     1.007825032070
         O            0.109031561551     0.938125184282    -0.056954107284    15.994914619560
         H           -0.783117843656     0.533541027941    -0.652843604507     1.007825032070
         C           -0.180763924310    -0.997972443127     1.563341495718    12.000000000000
         H           -0.352382501503    -2.070307886702     1.684985698054     1.007825032070
         H            0.920450502560    -1.066307880926    -0.336682786502     1.007825032070

  Running in c1 symmetry.

  Rotational constants: A =      0.28053  B =      0.11886  C =      0.09501 [cm^-1]
  Rotational constants: A =   8410.04714  B =   3563.32835  C =   2848.21710 [MHz]
  Nuclear repulsion =  195.937826599489767

  Charge       = 0
  Multiplicity = 1
  Electrons    = 42
  Nalpha       = 21
  Nbeta        = 21

  ==> Algorithm <==

  SCF Algorithm Type is DF.
  DIIS enabled.
  MOM disabled.
  Fractional occupation disabled.
  Guess Type is SAD.
  Energy threshold   = 1.00e-08
  Density threshold  = 1.00e-08
  Integral threshold = 0.00e+00

  ==> Primary Basis <==

  Basis Set: 6-311++G(D,P)
    Blend: 6-311++G(D,P)
    Number of shells: 90
    Number of basis function: 166
    Number of Cartesian functions: 171
    Spherical Harmonics?: true
    Max angular momentum: 2

  ==> DFT Potential <==

   => Composite Functional: M06-2X <= 

    Hybrid M06-2X Meta-GGA XC Functional

    Y. Zhao and D. G. Truhlar,  Theor. Chem. Acc., 120, 215, 2008


    Deriv               =              1
    GGA                 =           TRUE
    Meta                =           TRUE

    Exchange Hybrid     =           TRUE
    MP2 Hybrid          =          FALSE

   => Exchange Functionals <=

    1.0000   XC_HYB_MGGA_X_M06_2X

   => Exact (HF) Exchange <=

    0.5400               HF 

   => Correlation Functionals <=

    1.0000   XC_MGGA_C_M06_2X

   => Molecular Quadrature <=

    Radial Scheme       =       TREUTLER
    Pruning Scheme      =           FLAT
    Nuclear Scheme      =       TREUTLER

    BS radius alpha     =              1
    Pruning alpha       =              1
    Radial Points       =             75
    Spherical Points    =            302
    Total Points        =         294450
    Total Blocks        =           2249
    Max Points          =            256
    Max Functions       =            166

   => Loading Basis Set <=

    Name: (6-311++G(D,P) AUX)
    Role: JKFIT
    Keyword: DF_BASIS_SCF
    atoms 1, 6, 11            entry C          line   162 file /root/psi4conda/share/psi4/basis/aug-cc-pvtz-jkfit.gbs 
    atoms 2, 9                entry O          line   286 file /root/psi4conda/share/psi4/basis/aug-cc-pvtz-jkfit.gbs 
    atoms 3-5, 7-8, 10, 12-13 entry H          line    70 file /root/psi4conda/share/psi4/basis/aug-cc-pvtz-jkfit.gbs 

  ==> Pre-Iterations <==

   -------------------------------------------------------
    Irrep   Nso     Nmo     Nalpha   Nbeta   Ndocc  Nsocc
   -------------------------------------------------------
     A        166     166       0       0       0       0
   -------------------------------------------------------
    Total     166     166      21      21      21       0
   -------------------------------------------------------

  ==> Integral Setup <==

  DFHelper Memory: AOs need 0.234 [GiB]; user supplied 0.366 [GiB]. Using in-core AOs.

  ==> MemDFJK: Density-Fitted J/K Matrices <==

    J tasked:                   Yes
    K tasked:                   Yes
    wK tasked:                   No
    OpenMP threads:              16
    Memory (MB):                375
    Algorithm:                 Core
    Schwarz Cutoff:           1E-12
    Mask sparsity (%):       1.9669
    Fitting Condition:        1E-12

   => Auxiliary Basis Set <=

  Basis Set: (6-311++G(D,P) AUX)
    Blend: AUG-CC-PVTZ-JKFIT
    Number of shells: 262
    Number of basis function: 888
    Number of Cartesian functions: 1095
    Spherical Harmonics?: true
    Max angular momentum: 4

  Minimum eigenvalue in the overlap matrix is 6.2265423306E-05.
  Using Symmetric Orthogonalization.

  SCF Guess: Superposition of Atomic Densities via on-the-fly atomic UHF.

  ==> Iterations <==

                           Total Energy        Delta E     RMS |[F,P]|

   @DF-RKS iter   0:  -270.67525700300490   -2.70675e+02   6.42305e-02 
   @DF-RKS iter   1:  -269.37498828374271    1.30027e+00   7.01498e-03 
   @DF-RKS iter   2:  -269.38449193435383   -9.50365e-03   6.28638e-03 DIIS
   @DF-RKS iter   3:  -269.45899399712010   -7.45021e-02   1.50358e-03 DIIS
   @DF-RKS iter   4:  -269.46057140700464   -1.57741e-03   4.54323e-04 DIIS
   @DF-RKS iter   5:  -269.46087669870525   -3.05292e-04   2.17270e-04 DIIS
   @DF-RKS iter   6:  -269.46091345873680   -3.67600e-05   5.38350e-05 DIIS
   @DF-RKS iter   7:  -269.46092172829151   -8.26955e-06   1.06080e-05 DIIS
   @DF-RKS iter   8:  -269.46092199148148   -2.63190e-07   2.36427e-06 DIIS
   @DF-RKS iter   9:  -269.46092201030075   -1.88193e-08   1.35657e-06 DIIS
   @DF-RKS iter  10:  -269.46092201274428   -2.44353e-09   3.65653e-07 DIIS
   @DF-RKS iter  11:  -269.46092201298916   -2.44881e-10   9.93166e-08 DIIS
   @DF-RKS iter  12:  -269.46092201300974   -2.05773e-11   2.79337e-08 DIIS
   @DF-RKS iter  13:  -269.46092201301184   -2.10321e-12   7.69857e-09 DIIS

  ==> Post-Iterations <==

    Orbital Energies [Eh]
    ---------------------

    Doubly Occupied:                                                      

       1A    -19.673289     2A    -19.573246     3A    -10.654101  
       4A    -10.606054     5A    -10.534813     6A     -1.213140  
       7A     -1.099915     8A     -0.848320     9A     -0.807090  
      10A     -0.685149    11A     -0.626756    12A     -0.571300  
      13A     -0.554836    14A     -0.521844    15A     -0.488219  
      16A     -0.479159    17A     -0.448422    18A     -0.443304  
      19A     -0.418050    20A     -0.341450    21A     -0.317269  

    Virtual:                                                              

      22A     -0.007230    23A      0.010290    24A      0.016479  
      25A      0.023458    26A      0.038584    27A      0.042979  
      28A      0.050500    29A      0.058190    30A      0.064047  
      31A      0.069878    32A      0.097545    33A      0.103318  
      34A      0.111938    35A      0.117976    36A      0.121205  
      37A      0.127919    38A      0.139376    39A      0.143755  
      40A      0.153163    41A      0.156865    42A      0.168781  
      43A      0.192174    44A      0.205630    45A      0.214649  
      46A      0.222447    47A      0.236598    48A      0.243783  
      49A      0.248748    50A      0.260983    51A      0.284426  
      52A      0.296073    53A      0.310297    54A      0.319528  
      55A      0.338080    56A      0.344285    57A      0.351572  
      58A      0.354957    59A      0.376683    60A      0.434699  
      61A      0.439826    62A      0.471113    63A      0.477357  
      64A      0.497815    65A      0.526802    66A      0.549284  
      67A      0.562858    68A      0.607270    69A      0.620329  
      70A      0.657366    71A      0.675297    72A      0.688005  
      73A      0.689973    74A      0.701908    75A      0.723396  
      76A      0.743305    77A      0.747117    78A      0.774630  
      79A      0.881232    80A      0.952248    81A      0.987665  
      82A      1.038204    83A      1.069659    84A      1.095562  
      85A      1.130449    86A      1.206741    87A      1.235622  
      88A      1.248380    89A      1.260918    90A      1.302692  
      91A      1.353817    92A      1.395434    93A      1.470107  
      94A      1.484177    95A      1.487367    96A      1.508818  
      97A      1.546548    98A      1.574341    99A      1.588397  
     100A      1.604899   101A      1.615050   102A      1.637057  
     103A      1.670954   104A      1.679379   105A      1.732501  
     106A      1.739936   107A      1.758880   108A      1.778170  
     109A      1.794265   110A      1.882423   111A      1.903464  
     112A      1.956260   113A      1.972201   114A      2.022415  
     115A      2.074256   116A      2.100912   117A      2.163718  
     118A      2.201474   119A      2.233023   120A      2.319778  
     121A      2.379476   122A      2.454829   123A      2.503101  
     124A      2.524463   125A      2.528505   126A      2.568533  
     127A      2.584966   128A      2.587566   129A      2.608213  
     130A      2.615091   131A      2.634976   132A      2.677733  
     133A      2.727193   134A      2.765147   135A      2.845618  
     136A      2.894457   137A      2.943476   138A      2.969126  
     139A      3.024839   140A      3.136697   141A      3.165755  
     142A      3.201680   143A      3.230829   144A      3.413120  
     145A      3.494476   146A      3.587600   147A      3.742367  
     148A      3.808760   149A      3.839640   150A      3.850028  
     151A      3.879133   152A      3.930914   153A      4.031322  
     154A      4.114288   155A      4.281454   156A      5.220101  
     157A      5.268605   158A      5.326198   159A      5.331261  
     160A      5.643462   161A      5.796970   162A     23.869989  
     163A     23.975058   164A     24.045355   165A     49.998605  
     166A     50.133923  

    Final Occupation by Irrep:
              A 
    DOCC [    21 ]

  Energy converged.

  @DF-RKS Final Energy:  -269.46092201301184

   => Energetics <=

    Nuclear Repulsion Energy =            195.9378265994897674
    One-Electron Energy =                -754.5402653469357119
    Two-Electron Energy =                 306.6741034349859092
    DFT Exchange-Correlation Energy =     -17.5325867005517964
    Empirical Dispersion Energy =           0.0000000000000000
    VV10 Nonlocal Energy =                  0.0000000000000000
    Total Energy =                       -269.4609220130118388



Properties will be evaluated at   0.000000,   0.000000,   0.000000 [a0]

Properties computed using the SCF density matrix

  Nuclear Dipole Moment: [e a0]
     X:     3.6520      Y:     0.8106      Z:     1.5957

  Electronic Dipole Moment: [e a0]
     X:    -2.3621      Y:    -0.2318      Z:    -1.3401

  Dipole Moment: [e a0]
     X:     1.2899      Y:     0.5789      Z:     0.2556     Total:     1.4368

  Dipole Moment: [D]
     X:     3.2786      Y:     1.4713      Z:     0.6497     Total:     3.6519


*** tstop() called on localhost.localdomain at Thu Jan 17 12:18:56 2019
Module time:
	user time   =     232.66 seconds =       3.88 minutes
	system time =       5.42 seconds =       0.09 minutes
	total time  =         19 seconds =       0.32 minutes
Total time:
	user time   =     536.73 seconds =       8.95 minutes
	system time =      14.58 seconds =       0.24 minutes
	total time  =         44 seconds =       0.73 minutes

*** tstart() called on localhost.localdomain
*** at Thu Jan 17 12:18:56 2019


         ------------------------------------------------------------
                                   SCF GRAD                          
                          Rob Parrish, Justin Turney,                
                       Andy Simmonett, and Alex Sokolov              
         ------------------------------------------------------------

  ==> Geometry <==

    Molecular point group: c1
    Full point group: C1

    Geometry (in Angstrom), charge = 0, multiplicity = 1:

       Center              X                  Y                   Z               Mass       
    ------------   -----------------  -----------------  -----------------  -----------------
         C           -0.037141894279    -0.723685043701     0.092538785598    12.000000000000
         O           -1.095535446615    -0.765301397607    -0.671681768301    15.994914619560
         H            0.715302155402    -0.716080654381     2.117701881222     1.007825032070
         H           -1.048303940671    -0.461780413299     1.947681485333     1.007825032070
         H            1.009424908977     2.456915312900    -1.093608588938     1.007825032070
         C            1.205230986543     1.418750859449    -0.827944008767    12.000000000000
         H            1.327885549423     0.821490968378    -1.736994114872     1.007825032070
         H            2.111362083730     1.366347935791    -0.224355224504     1.007825032070
         O            0.109031561551     0.938125184282    -0.056954107284    15.994914619560
         H           -0.783117843656     0.533541027941    -0.652843604507     1.007825032070
         C           -0.180763924310    -0.997972443127     1.563341495718    12.000000000000
         H           -0.352382501503    -2.070307886702     1.684985698054     1.007825032070
         H            0.920450502560    -1.066307880926    -0.336682786502     1.007825032070

  Nuclear repulsion =  195.937826599489767

  ==> Basis Set <==

  Basis Set: 6-311++G(D,P)
    Blend: 6-311++G(D,P)
    Number of shells: 90
    Number of basis function: 166
    Number of Cartesian functions: 171
    Spherical Harmonics?: true
    Max angular momentum: 2

  ==> DFJKGrad: Density-Fitted SCF Gradients <==

    Gradient:                    1
    J tasked:                  Yes
    K tasked:                  Yes
    wK tasked:                  No
    OpenMP threads:             16
    Integrals threads:          16
    Memory (MB):               375
    Schwarz Cutoff:          0E+00
    Fitting Condition:       1E-12

   => Auxiliary Basis Set <=

  Basis Set: (6-311++G(D,P) AUX)
    Blend: AUG-CC-PVTZ-JKFIT
    Number of shells: 262
    Number of basis function: 888
    Number of Cartesian functions: 1095
    Spherical Harmonics?: true
    Max angular momentum: 4

  ==> DFT Potential <==

   => Composite Functional: M06-2X <= 

    Hybrid M06-2X Meta-GGA XC Functional

    Y. Zhao and D. G. Truhlar,  Theor. Chem. Acc., 120, 215, 2008


    Deriv               =              1
    GGA                 =           TRUE
    Meta                =           TRUE

    Exchange Hybrid     =           TRUE
    MP2 Hybrid          =          FALSE

   => Exchange Functionals <=

    1.0000   XC_HYB_MGGA_X_M06_2X

   => Exact (HF) Exchange <=

    0.5400               HF 

   => Correlation Functionals <=

    1.0000   XC_MGGA_C_M06_2X

   => Molecular Quadrature <=

    Radial Scheme       =       TREUTLER
    Pruning Scheme      =           FLAT
    Nuclear Scheme      =       TREUTLER

    BS radius alpha     =              1
    Pruning alpha       =              1
    Radial Points       =             75
    Spherical Points    =            302
    Total Points        =         294450
    Total Blocks        =           2249
    Max Points          =            256
    Max Functions       =            166


  -Total Gradient:
     Atom            X                  Y                   Z
    ------   -----------------  -----------------  -----------------
       1       -0.000933072498     0.000211336625     0.000105971255
       2        0.000401599823     0.000178280007     0.000141949033
       3       -0.000012660284    -0.000004909563     0.000088824995
       4       -0.000000655131     0.000017898421    -0.000048008929
       5        0.000011617467    -0.000041309813    -0.000019528817
       6       -0.000009356938    -0.000033654442    -0.000012496798
       7        0.000015779913    -0.000048778268    -0.000001156442
       8        0.000020453213    -0.000022961821     0.000000211854
       9        0.000335330897    -0.000125229227     0.000205106163
      10       -0.000325389618    -0.000344151436    -0.000140446934
      11        0.000175116214     0.000046325780    -0.000134990925
      12       -0.000006621268     0.000004756001     0.000023619081
      13        0.000356279204    -0.000110243729    -0.000058820672


*** tstop() called on localhost.localdomain at Thu Jan 17 12:19:01 2019
Module time:
	user time   =      60.45 seconds =       1.01 minutes
	system time =       2.00 seconds =       0.03 minutes
	total time  =          5 seconds =       0.08 minutes
Total time:
	user time   =     597.22 seconds =       9.95 minutes
	system time =      16.58 seconds =       0.28 minutes
	total time  =         49 seconds =       0.82 minutes

  //>>>>>>>>>>>>>>>>>>>>>>>>>>>>>>>>>>>//
  //    Loading displacement 2 of 67   //
  //<<<<<<<<<<<<<<<<<<<<<<<<<<<<<<<<<<<//
gradient() will perform analytic gradient computation.

*** tstart() called on localhost.localdomain
*** at Thu Jan 17 12:19:01 2019

   => Loading Basis Set <=

    Name: 6-311++G(D,P)
    Role: ORBITAL
    Keyword: BASIS
    atoms 1, 6, 11            entry C          line   119 file /root/psi4conda/share/psi4/basis/6-311ppg_d_p_.gbs 
    atoms 2, 9                entry O          line   161 file /root/psi4conda/share/psi4/basis/6-311ppg_d_p_.gbs 
    atoms 3-5, 7-8, 10, 12-13 entry H          line    42 file /root/psi4conda/share/psi4/basis/6-311ppg_d_p_.gbs 


         ---------------------------------------------------------
                                   SCF
            by Justin Turney, Rob Parrish, Andy Simmonett
                             and Daniel Smith
                              RKS Reference
                       16 Threads,    500 MiB Core
         ---------------------------------------------------------

  ==> Geometry <==

    Molecular point group: c1
    Full point group: C1

    Geometry (in Angstrom), charge = 0, multiplicity = 1:

       Center              X                  Y                   Z               Mass       
    ------------   -----------------  -----------------  -----------------  -----------------
         C           -0.035783466350    -0.723682064558     0.092527263928    12.000000000000
         O           -1.095924618343    -0.765151328816    -0.671660045205    15.994914619560
         H            0.715008639652    -0.716208050131     2.117666385535     1.007825032070
         H           -1.048570799474    -0.461682248586     1.947707013979     1.007825032070
         H            1.009428857824     2.456807093568    -1.093597878162     1.007825032070
         C            1.205112429079     1.418613276869    -0.827957782381    12.000000000000
         H            1.327662457367     0.821353854403    -1.737022294684     1.007825032070
         H            2.111256262805     1.366085406711    -0.224398980240     1.007825032070
         O            0.108877081157     0.938112432065    -0.056941150082    15.994914619560
         H           -0.783342489300     0.533651326300    -0.652809126813     1.007825032070
         C           -0.181110788599    -0.997977023356     1.563329797506    12.000000000000
         H           -0.352860800574    -2.070292932150     1.684960700980     1.007825032070
         H            0.920034068118    -1.066418118020    -0.336731001554     1.007825032070

  Running in c1 symmetry.

  Rotational constants: A =      0.28048  B =      0.11886  C =      0.09501 [cm^-1]
  Rotational constants: A =   8408.65443  B =   3563.33069  C =   2848.42365 [MHz]
  Nuclear repulsion =  195.922806699670161

  Charge       = 0
  Multiplicity = 1
  Electrons    = 42
  Nalpha       = 21
  Nbeta        = 21

  ==> Algorithm <==

  SCF Algorithm Type is DF.
  DIIS enabled.
  MOM disabled.
  Fractional occupation disabled.
  Guess Type is SAD.
  Energy threshold   = 1.00e-08
  Density threshold  = 1.00e-08
  Integral threshold = 0.00e+00

  ==> Primary Basis <==

  Basis Set: 6-311++G(D,P)
    Blend: 6-311++G(D,P)
    Number of shells: 90
    Number of basis function: 166
    Number of Cartesian functions: 171
    Spherical Harmonics?: true
    Max angular momentum: 2

  ==> DFT Potential <==

   => Composite Functional: M06-2X <= 

    Hybrid M06-2X Meta-GGA XC Functional

    Y. Zhao and D. G. Truhlar,  Theor. Chem. Acc., 120, 215, 2008


    Deriv               =              1
    GGA                 =           TRUE
    Meta                =           TRUE

    Exchange Hybrid     =           TRUE
    MP2 Hybrid          =          FALSE

   => Exchange Functionals <=

    1.0000   XC_HYB_MGGA_X_M06_2X

   => Exact (HF) Exchange <=

    0.5400               HF 

   => Correlation Functionals <=

    1.0000   XC_MGGA_C_M06_2X

   => Molecular Quadrature <=

    Radial Scheme       =       TREUTLER
    Pruning Scheme      =           FLAT
    Nuclear Scheme      =       TREUTLER

    BS radius alpha     =              1
    Pruning alpha       =              1
    Radial Points       =             75
    Spherical Points    =            302
    Total Points        =         294450
    Total Blocks        =           2245
    Max Points          =            256
    Max Functions       =            166

   => Loading Basis Set <=

    Name: (6-311++G(D,P) AUX)
    Role: JKFIT
    Keyword: DF_BASIS_SCF
    atoms 1, 6, 11            entry C          line   162 file /root/psi4conda/share/psi4/basis/aug-cc-pvtz-jkfit.gbs 
    atoms 2, 9                entry O          line   286 file /root/psi4conda/share/psi4/basis/aug-cc-pvtz-jkfit.gbs 
    atoms 3-5, 7-8, 10, 12-13 entry H          line    70 file /root/psi4conda/share/psi4/basis/aug-cc-pvtz-jkfit.gbs 

  ==> Pre-Iterations <==

   -------------------------------------------------------
    Irrep   Nso     Nmo     Nalpha   Nbeta   Ndocc  Nsocc
   -------------------------------------------------------
     A        166     166       0       0       0       0
   -------------------------------------------------------
    Total     166     166      21      21      21       0
   -------------------------------------------------------

  ==> Integral Setup <==

  DFHelper Memory: AOs need 0.234 [GiB]; user supplied 0.366 [GiB]. Using in-core AOs.

  ==> MemDFJK: Density-Fitted J/K Matrices <==

    J tasked:                   Yes
    K tasked:                   Yes
    wK tasked:                   No
    OpenMP threads:              16
    Memory (MB):                375
    Algorithm:                 Core
    Schwarz Cutoff:           1E-12
    Mask sparsity (%):       1.9669
    Fitting Condition:        1E-12

   => Auxiliary Basis Set <=

  Basis Set: (6-311++G(D,P) AUX)
    Blend: AUG-CC-PVTZ-JKFIT
    Number of shells: 262
    Number of basis function: 888
    Number of Cartesian functions: 1095
    Spherical Harmonics?: true
    Max angular momentum: 4

  Minimum eigenvalue in the overlap matrix is 6.2292351681E-05.
  Using Symmetric Orthogonalization.

  SCF Guess: Superposition of Atomic Densities via on-the-fly atomic UHF.

  ==> Iterations <==

                           Total Energy        Delta E     RMS |[F,P]|

   @DF-RKS iter   0:  -270.49620344143204   -2.70496e+02   8.40606e-02 
   @DF-RKS iter   1:  -269.29422201759786    1.20198e+00   1.54555e-02 
   @DF-RKS iter   2:  -269.17950141641631    1.14721e-01   2.04643e-02 DIIS
   @DF-RKS iter   3:  -269.45508245716127   -2.75581e-01   2.49524e-03 DIIS
   @DF-RKS iter   4:  -269.45999716961325   -4.91471e-03   1.04742e-03 DIIS
   @DF-RKS iter   5:  -269.46083389261446   -8.36723e-04   3.15585e-04 DIIS
   @DF-RKS iter   6:  -269.46091175490574   -7.78623e-05   1.00895e-04 DIIS
   @DF-RKS iter   7:  -269.46092111776358   -9.36286e-06   1.02016e-05 DIIS
   @DF-RKS iter   8:  -269.46092163617266   -5.18409e-07   5.13392e-06 DIIS
   @DF-RKS iter   9:  -269.46092167686731   -4.06947e-08   1.69734e-06 DIIS
   @DF-RKS iter  10:  -269.46092168109936   -4.23205e-09   3.98475e-07 DIIS
   @DF-RKS iter  11:  -269.46092168143974   -3.40378e-10   7.41176e-08 DIIS
   @DF-RKS iter  12:  -269.46092168146856   -2.88196e-11   3.57157e-08 DIIS
   @DF-RKS iter  13:  -269.46092168147089   -2.33058e-12   1.06762e-08 DIIS
   @DF-RKS iter  14:  -269.46092168147175   -8.52651e-13   4.27288e-09 DIIS

  ==> Post-Iterations <==

    Orbital Energies [Eh]
    ---------------------

    Doubly Occupied:                                                      

       1A    -19.673421     2A    -19.573059     3A    -10.654079  
       4A    -10.606107     5A    -10.534849     6A     -1.213014  
       7A     -1.099354     8A     -0.848311     9A     -0.807110  
      10A     -0.685495    11A     -0.626685    12A     -0.571359  
      13A     -0.554836    14A     -0.521798    15A     -0.488091  
      16A     -0.479084    17A     -0.448471    18A     -0.443146  
      19A     -0.418152    20A     -0.341266    21A     -0.317224  

    Virtual:                                                              

      22A     -0.007259    23A      0.010278    24A      0.016465  
      25A      0.023446    26A      0.038575    27A      0.042979  
      28A      0.050501    29A      0.058121    30A      0.064001  
      31A      0.069852    32A      0.097549    33A      0.103311  
      34A      0.111972    35A      0.117980    36A      0.121181  
      37A      0.127939    38A      0.139365    39A      0.143774  
      40A      0.153162    41A      0.156875    42A      0.168822  
      43A      0.192106    44A      0.205623    45A      0.214660  
      46A      0.222440    47A      0.236602    48A      0.243809  
      49A      0.248704    50A      0.260973    51A      0.284422  
      52A      0.296036    53A      0.310137    54A      0.319416  
      55A      0.338121    56A      0.344243    57A      0.351581  
      58A      0.354991    59A      0.376728    60A      0.434464  
      61A      0.439845    62A      0.471072    63A      0.477174  
      64A      0.497769    65A      0.526924    66A      0.549246  
      67A      0.562885    68A      0.607347    69A      0.620263  
      70A      0.657305    71A      0.675281    72A      0.687770  
      73A      0.689901    74A      0.701923    75A      0.723397  
      76A      0.743461    77A      0.746807    78A      0.774698  
      79A      0.881242    80A      0.952091    81A      0.987743  
      82A      1.038144    83A      1.069632    84A      1.095691  
      85A      1.130427    86A      1.206898    87A      1.235379  
      88A      1.248468    89A      1.261022    90A      1.302709  
      91A      1.353787    92A      1.395328    93A      1.470046  
      94A      1.484117    95A      1.487474    96A      1.508879  
      97A      1.546751    98A      1.574409    99A      1.588362  
     100A      1.604977   101A      1.615102   102A      1.637004  
     103A      1.670909   104A      1.679166   105A      1.732470  
     106A      1.739964   107A      1.758923   108A      1.778287  
     109A      1.794369   110A      1.882261   111A      1.903563  
     112A      1.956523   113A      1.971845   114A      2.022546  
     115A      2.074257   116A      2.100777   117A      2.163805  
     118A      2.201579   119A      2.233111   120A      2.319971  
     121A      2.379506   122A      2.454777   123A      2.503118  
     124A      2.524471   125A      2.528564   126A      2.568797  
     127A      2.585050   128A      2.587547   129A      2.608333  
     130A      2.615231   131A      2.635040   132A      2.677756  
     133A      2.726826   134A      2.765263   135A      2.845526  
     136A      2.894395   137A      2.943616   138A      2.969239  
     139A      3.024542   140A      3.136861   141A      3.164317  
     142A      3.201685   143A      3.229617   144A      3.412233  
     145A      3.492771   146A      3.587652   147A      3.742427  
     148A      3.808881   149A      3.839657   150A      3.850163  
     151A      3.879016   152A      3.931060   153A      4.032122  
     154A      4.114741   155A      4.281143   156A      5.220097  
     157A      5.268550   158A      5.326086   159A      5.331302  
     160A      5.643317   161A      5.795912   162A     23.870045  
     163A     23.975003   164A     24.045261   165A     49.998505  
     166A     50.133612  

    Final Occupation by Irrep:
              A 
    DOCC [    21 ]

  Energy converged.

  @DF-RKS Final Energy:  -269.46092168147175

   => Energetics <=

    Nuclear Repulsion Energy =            195.9228066996701614
    One-Electron Energy =                -754.5120027793500412
    Two-Electron Energy =                 306.6606919331197787
    DFT Exchange-Correlation Energy =     -17.5324175349117226
    Empirical Dispersion Energy =           0.0000000000000000
    VV10 Nonlocal Energy =                  0.0000000000000000
    Total Energy =                       -269.4609216814717456



Properties will be evaluated at   0.000000,   0.000000,   0.000000 [a0]

Properties computed using the SCF density matrix

  Nuclear Dipole Moment: [e a0]
     X:     3.6501      Y:     0.8101      Z:     1.5956

  Electronic Dipole Moment: [e a0]
     X:    -2.3567      Y:    -0.2307      Z:    -1.3393

  Dipole Moment: [e a0]
     X:     1.2934      Y:     0.5794      Z:     0.2563     Total:     1.4402

  Dipole Moment: [D]
     X:     3.2874      Y:     1.4728      Z:     0.6516     Total:     3.6607


*** tstop() called on localhost.localdomain at Thu Jan 17 12:19:20 2019
Module time:
	user time   =     245.42 seconds =       4.09 minutes
	system time =       4.55 seconds =       0.08 minutes
	total time  =         19 seconds =       0.32 minutes
Total time:
	user time   =     843.02 seconds =      14.05 minutes
	system time =      21.18 seconds =       0.35 minutes
	total time  =         68 seconds =       1.13 minutes

*** tstart() called on localhost.localdomain
*** at Thu Jan 17 12:19:20 2019


         ------------------------------------------------------------
                                   SCF GRAD                          
                          Rob Parrish, Justin Turney,                
                       Andy Simmonett, and Alex Sokolov              
         ------------------------------------------------------------

  ==> Geometry <==

    Molecular point group: c1
    Full point group: C1

    Geometry (in Angstrom), charge = 0, multiplicity = 1:

       Center              X                  Y                   Z               Mass       
    ------------   -----------------  -----------------  -----------------  -----------------
         C           -0.035783466350    -0.723682064558     0.092527263928    12.000000000000
         O           -1.095924618343    -0.765151328816    -0.671660045205    15.994914619560
         H            0.715008639652    -0.716208050131     2.117666385535     1.007825032070
         H           -1.048570799474    -0.461682248586     1.947707013979     1.007825032070
         H            1.009428857824     2.456807093568    -1.093597878162     1.007825032070
         C            1.205112429079     1.418613276869    -0.827957782381    12.000000000000
         H            1.327662457367     0.821353854403    -1.737022294684     1.007825032070
         H            2.111256262805     1.366085406711    -0.224398980240     1.007825032070
         O            0.108877081157     0.938112432065    -0.056941150082    15.994914619560
         H           -0.783342489300     0.533651326300    -0.652809126813     1.007825032070
         C           -0.181110788599    -0.997977023356     1.563329797506    12.000000000000
         H           -0.352860800574    -2.070292932150     1.684960700980     1.007825032070
         H            0.920034068118    -1.066418118020    -0.336731001554     1.007825032070

  Nuclear repulsion =  195.922806699670161

  ==> Basis Set <==

  Basis Set: 6-311++G(D,P)
    Blend: 6-311++G(D,P)
    Number of shells: 90
    Number of basis function: 166
    Number of Cartesian functions: 171
    Spherical Harmonics?: true
    Max angular momentum: 2

  ==> DFJKGrad: Density-Fitted SCF Gradients <==

    Gradient:                    1
    J tasked:                  Yes
    K tasked:                  Yes
    wK tasked:                  No
    OpenMP threads:             16
    Integrals threads:          16
    Memory (MB):               375
    Schwarz Cutoff:          0E+00
    Fitting Condition:       1E-12

   => Auxiliary Basis Set <=

  Basis Set: (6-311++G(D,P) AUX)
    Blend: AUG-CC-PVTZ-JKFIT
    Number of shells: 262
    Number of basis function: 888
    Number of Cartesian functions: 1095
    Spherical Harmonics?: true
    Max angular momentum: 4

  ==> DFT Potential <==

   => Composite Functional: M06-2X <= 

    Hybrid M06-2X Meta-GGA XC Functional

    Y. Zhao and D. G. Truhlar,  Theor. Chem. Acc., 120, 215, 2008


    Deriv               =              1
    GGA                 =           TRUE
    Meta                =           TRUE

    Exchange Hybrid     =           TRUE
    MP2 Hybrid          =          FALSE

   => Exchange Functionals <=

    1.0000   XC_HYB_MGGA_X_M06_2X

   => Exact (HF) Exchange <=

    0.5400               HF 

   => Correlation Functionals <=

    1.0000   XC_MGGA_C_M06_2X

   => Molecular Quadrature <=

    Radial Scheme       =       TREUTLER
    Pruning Scheme      =           FLAT
    Nuclear Scheme      =       TREUTLER

    BS radius alpha     =              1
    Pruning alpha       =              1
    Radial Points       =             75
    Spherical Points    =            302
    Total Points        =         294450
    Total Blocks        =           2245
    Max Points          =            256
    Max Functions       =            166


  -Total Gradient:
     Atom            X                  Y                   Z
    ------   -----------------  -----------------  -----------------
       1        0.001140997381    -0.000320796302     0.000137664770
       2       -0.000532866685     0.000073455477    -0.000244883537
       3       -0.000003108293     0.000019268165    -0.000012632124
       4       -0.000018662281    -0.000003666394     0.000057594290
       5        0.000010836712    -0.000039179021    -0.000019716639
       6       -0.000025849039    -0.000077182844    -0.000000260012
       7        0.000022516153    -0.000052340777     0.000000840799
       8        0.000017737187    -0.000027633331     0.000000529678
       9        0.000067429861     0.000068813908     0.000120619442
      10       -0.000162852616    -0.000061987467    -0.000113764131
      11       -0.000125048200     0.000059438821    -0.000036867319
      12       -0.000014458451     0.000001995048     0.000034666303
      13       -0.000343759411     0.000088232669     0.000227545254


*** tstop() called on localhost.localdomain at Thu Jan 17 12:19:24 2019
Module time:
	user time   =      53.91 seconds =       0.90 minutes
	system time =       1.96 seconds =       0.03 minutes
	total time  =          4 seconds =       0.07 minutes
Total time:
	user time   =     896.98 seconds =      14.95 minutes
	system time =      23.14 seconds =       0.39 minutes
	total time  =         72 seconds =       1.20 minutes

  //>>>>>>>>>>>>>>>>>>>>>>>>>>>>>>>>>>>//
  //    Loading displacement 3 of 67   //
  //<<<<<<<<<<<<<<<<<<<<<<<<<<<<<<<<<<<//
gradient() will perform analytic gradient computation.

*** tstart() called on localhost.localdomain
*** at Thu Jan 17 12:19:24 2019

   => Loading Basis Set <=

    Name: 6-311++G(D,P)
    Role: ORBITAL
    Keyword: BASIS
    atoms 1, 6, 11            entry C          line   119 file /root/psi4conda/share/psi4/basis/6-311ppg_d_p_.gbs 
    atoms 2, 9                entry O          line   161 file /root/psi4conda/share/psi4/basis/6-311ppg_d_p_.gbs 
    atoms 3-5, 7-8, 10, 12-13 entry H          line    42 file /root/psi4conda/share/psi4/basis/6-311ppg_d_p_.gbs 


         ---------------------------------------------------------
                                   SCF
            by Justin Turney, Rob Parrish, Andy Simmonett
                             and Daniel Smith
                              RKS Reference
                       16 Threads,    500 MiB Core
         ---------------------------------------------------------

  ==> Geometry <==

    Molecular point group: c1
    Full point group: C1

    Geometry (in Angstrom), charge = 0, multiplicity = 1:

       Center              X                  Y                   Z               Mass       
    ------------   -----------------  -----------------  -----------------  -----------------
         C           -0.036462680314    -0.724384149731     0.092538082934    12.000000000000
         O           -1.095730204037    -0.765097733224    -0.671667952691    15.994914619560
         H            0.715148998252    -0.715999232050     2.117690840389     1.007825032070
         H           -1.048442917298    -0.461584180848     1.947695154927     1.007825032070
         H            1.009433582297     2.456982971545    -1.093618399783     1.007825032070
         C            1.205175899225     1.418805364229    -0.827958243641    12.000000000000
         H            1.327779157410     0.821539024820    -1.737011032461     1.007825032070
         H            2.111311901293     1.366342591470    -0.224382025368     1.007825032070
         O            0.108955884296     0.938249593469    -0.056954045925    15.994914619560
         H           -0.783227996469     0.533724367316    -0.652831930110     1.007825032070
         C           -0.180943017500    -0.997831905948     1.563342326007    12.000000000000
         H           -0.352629556059    -2.070156402906     1.684987107424     1.007825032070
         H            0.920240802299    -1.066235690757    -0.336697234687     1.007825032070

  Running in c1 symmetry.

  Rotational constants: A =      0.28048  B =      0.11885  C =      0.09500 [cm^-1]
  Rotational constants: A =   8408.62169  B =   3562.97107  C =   2848.16878 [MHz]
  Nuclear repulsion =  195.922291395732827

  Charge       = 0
  Multiplicity = 1
  Electrons    = 42
  Nalpha       = 21
  Nbeta        = 21

  ==> Algorithm <==

  SCF Algorithm Type is DF.
  DIIS enabled.
  MOM disabled.
  Fractional occupation disabled.
  Guess Type is SAD.
  Energy threshold   = 1.00e-08
  Density threshold  = 1.00e-08
  Integral threshold = 0.00e+00

  ==> Primary Basis <==

  Basis Set: 6-311++G(D,P)
    Blend: 6-311++G(D,P)
    Number of shells: 90
    Number of basis function: 166
    Number of Cartesian functions: 171
    Spherical Harmonics?: true
    Max angular momentum: 2

  ==> DFT Potential <==

   => Composite Functional: M06-2X <= 

    Hybrid M06-2X Meta-GGA XC Functional

    Y. Zhao and D. G. Truhlar,  Theor. Chem. Acc., 120, 215, 2008


    Deriv               =              1
    GGA                 =           TRUE
    Meta                =           TRUE

    Exchange Hybrid     =           TRUE
    MP2 Hybrid          =          FALSE

   => Exchange Functionals <=

    1.0000   XC_HYB_MGGA_X_M06_2X

   => Exact (HF) Exchange <=

    0.5400               HF 

   => Correlation Functionals <=

    1.0000   XC_MGGA_C_M06_2X

   => Molecular Quadrature <=

    Radial Scheme       =       TREUTLER
    Pruning Scheme      =           FLAT
    Nuclear Scheme      =       TREUTLER

    BS radius alpha     =              1
    Pruning alpha       =              1
    Radial Points       =             75
    Spherical Points    =            302
    Total Points        =         294450
    Total Blocks        =           2245
    Max Points          =            256
    Max Functions       =            166

   => Loading Basis Set <=

    Name: (6-311++G(D,P) AUX)
    Role: JKFIT
    Keyword: DF_BASIS_SCF
    atoms 1, 6, 11            entry C          line   162 file /root/psi4conda/share/psi4/basis/aug-cc-pvtz-jkfit.gbs 
    atoms 2, 9                entry O          line   286 file /root/psi4conda/share/psi4/basis/aug-cc-pvtz-jkfit.gbs 
    atoms 3-5, 7-8, 10, 12-13 entry H          line    70 file /root/psi4conda/share/psi4/basis/aug-cc-pvtz-jkfit.gbs 

  ==> Pre-Iterations <==

   -------------------------------------------------------
    Irrep   Nso     Nmo     Nalpha   Nbeta   Ndocc  Nsocc
   -------------------------------------------------------
     A        166     166       0       0       0       0
   -------------------------------------------------------
    Total     166     166      21      21      21       0
   -------------------------------------------------------

  ==> Integral Setup <==

  DFHelper Memory: AOs need 0.234 [GiB]; user supplied 0.366 [GiB]. Using in-core AOs.

  ==> MemDFJK: Density-Fitted J/K Matrices <==

    J tasked:                   Yes
    K tasked:                   Yes
    wK tasked:                   No
    OpenMP threads:              16
    Memory (MB):                375
    Algorithm:                 Core
    Schwarz Cutoff:           1E-12
    Mask sparsity (%):       1.9669
    Fitting Condition:        1E-12

   => Auxiliary Basis Set <=

  Basis Set: (6-311++G(D,P) AUX)
    Blend: AUG-CC-PVTZ-JKFIT
    Number of shells: 262
    Number of basis function: 888
    Number of Cartesian functions: 1095
    Spherical Harmonics?: true
    Max angular momentum: 4

  Minimum eigenvalue in the overlap matrix is 6.2230085029E-05.
  Using Symmetric Orthogonalization.

  SCF Guess: Superposition of Atomic Densities via on-the-fly atomic UHF.

  ==> Iterations <==

                           Total Energy        Delta E     RMS |[F,P]|

   @DF-RKS iter   0:  -270.46029090322691   -2.70460e+02   5.07705e-02 
   @DF-RKS iter   1:  -269.31711273788875    1.14318e+00   9.58818e-03 
   @DF-RKS iter   2:  -269.30038772744791    1.67250e-02   1.40976e-02 DIIS
   @DF-RKS iter   3:  -269.45446752347721   -1.54080e-01   2.22304e-03 DIIS
   @DF-RKS iter   4:  -269.46017268974265   -5.70517e-03   9.25332e-04 DIIS
   @DF-RKS iter   5:  -269.46084907789731   -6.76388e-04   3.28630e-04 DIIS
   @DF-RKS iter   6:  -269.46091168815099   -6.26103e-05   1.14135e-04 DIIS
   @DF-RKS iter   7:  -269.46092196689028   -1.02787e-05   1.49551e-05 DIIS
   @DF-RKS iter   8:  -269.46092245191289   -4.85023e-07   5.61586e-06 DIIS
   @DF-RKS iter   9:  -269.46092249124519   -3.93323e-08   1.74652e-06 DIIS
   @DF-RKS iter  10:  -269.46092249515664   -3.91145e-09   4.01434e-07 DIIS
   @DF-RKS iter  11:  -269.46092249535513   -1.98497e-10   9.92002e-08 DIIS
   @DF-RKS iter  12:  -269.46092249537219   -1.70530e-11   4.75175e-08 DIIS
   @DF-RKS iter  13:  -269.46092249537423   -2.04636e-12   5.89096e-09 DIIS

  ==> Post-Iterations <==

    Orbital Energies [Eh]
    ---------------------

    Doubly Occupied:                                                      

       1A    -19.673191     2A    -19.573205     3A    -10.654105  
       4A    -10.606005     5A    -10.534863     6A     -1.212896  
       7A     -1.099635     8A     -0.848368     9A     -0.806999  
      10A     -0.685351    11A     -0.626609    12A     -0.571245  
      13A     -0.554787    14A     -0.521856    15A     -0.488143  
      16A     -0.479186    17A     -0.448461    18A     -0.443247  
      19A     -0.417960    20A     -0.341324    21A     -0.317323  

    Virtual:                                                              

      22A     -0.007236    23A      0.010285    24A      0.016478  
      25A      0.023452    26A      0.038583    27A      0.042979  
      28A      0.050499    29A      0.058099    30A      0.063949  
      31A      0.069848    32A      0.097522    33A      0.103294  
      34A      0.111940    35A      0.117966    36A      0.121202  
      37A      0.127885    38A      0.139378    39A      0.143772  
      40A      0.153157    41A      0.156872    42A      0.168803  
      43A      0.192158    44A      0.205661    45A      0.214636  
      46A      0.222423    47A      0.236646    48A      0.243797  
      49A      0.248759    50A      0.261038    51A      0.284424  
      52A      0.296058    53A      0.310192    54A      0.319540  
      55A      0.338094    56A      0.344274    57A      0.351576  
      58A      0.354983    59A      0.376694    60A      0.434582  
      61A      0.439830    62A      0.471125    63A      0.477305  
      64A      0.497810    65A      0.526872    66A      0.549284  
      67A      0.562861    68A      0.607383    69A      0.620352  
      70A      0.657392    71A      0.675353    72A      0.687936  
      73A      0.689883    74A      0.701949    75A      0.723413  
      76A      0.743439    77A      0.746927    78A      0.774648  
      79A      0.881240    80A      0.952292    81A      0.987646  
      82A      1.038200    83A      1.069724    84A      1.095693  
      85A      1.130402    86A      1.206786    87A      1.235471  
      88A      1.248422    89A      1.261030    90A      1.302703  
      91A      1.353715    92A      1.395324    93A      1.470137  
      94A      1.484206    95A      1.487440    96A      1.508848  
      97A      1.546640    98A      1.574342    99A      1.588399  
     100A      1.604910   101A      1.615087   102A      1.637083  
     103A      1.670812   104A      1.679278   105A      1.732457  
     106A      1.740004   107A      1.758965   108A      1.778295  
     109A      1.794372   110A      1.882345   111A      1.903576  
     112A      1.956422   113A      1.971851   114A      2.022606  
     115A      2.074273   116A      2.100806   117A      2.163806  
     118A      2.201627   119A      2.233102   120A      2.319798  
     121A      2.379622   122A      2.454849   123A      2.503105  
     124A      2.524506   125A      2.528515   126A      2.568711  
     127A      2.584968   128A      2.587556   129A      2.608356  
     130A      2.615163   131A      2.634994   132A      2.678015  
     133A      2.726876   134A      2.765237   135A      2.845550  
     136A      2.894538   137A      2.943595   138A      2.969175  
     139A      3.024759   140A      3.136652   141A      3.165003  
     142A      3.201828   143A      3.230046   144A      3.412992  
     145A      3.493682   146A      3.587209   147A      3.742382  
     148A      3.808763   149A      3.839690   150A      3.850099  
     151A      3.879045   152A      3.930634   153A      4.031765  
     154A      4.114618   155A      4.281198   156A      5.219887  
     157A      5.268585   158A      5.326257   159A      5.331156  
     160A      5.643376   161A      5.796401   162A     23.870315  
     163A     23.975098   164A     24.045341   165A     49.998690  
     166A     50.133764  

    Final Occupation by Irrep:
              A 
    DOCC [    21 ]

  Energy converged.

  @DF-RKS Final Energy:  -269.46092249537423

   => Energetics <=

    Nuclear Repulsion Energy =            195.9222913957328274
    One-Electron Energy =                -754.5112191745723749
    Two-Electron Energy =                 306.6604968603895713
    DFT Exchange-Correlation Energy =     -17.5324915769242828
    Empirical Dispersion Energy =           0.0000000000000000
    VV10 Nonlocal Energy =                  0.0000000000000000
    Total Energy =                       -269.4609224953742341



Properties will be evaluated at   0.000000,   0.000000,   0.000000 [a0]

Properties computed using the SCF density matrix

  Nuclear Dipole Moment: [e a0]
     X:     3.6510      Y:     0.8114      Z:     1.5957

  Electronic Dipole Moment: [e a0]
     X:    -2.3600      Y:    -0.2341      Z:    -1.3393

  Dipole Moment: [e a0]
     X:     1.2911      Y:     0.5773      Z:     0.2564     Total:     1.4373

  Dipole Moment: [D]
     X:     3.2816      Y:     1.4672      Z:     0.6517     Total:     3.6533


*** tstop() called on localhost.localdomain at Thu Jan 17 12:19:43 2019
Module time:
	user time   =     238.26 seconds =       3.97 minutes
	system time =       5.75 seconds =       0.10 minutes
	total time  =         19 seconds =       0.32 minutes
Total time:
	user time   =    1135.68 seconds =      18.93 minutes
	system time =      28.94 seconds =       0.48 minutes
	total time  =         91 seconds =       1.52 minutes

*** tstart() called on localhost.localdomain
*** at Thu Jan 17 12:19:43 2019


         ------------------------------------------------------------
                                   SCF GRAD                          
                          Rob Parrish, Justin Turney,                
                       Andy Simmonett, and Alex Sokolov              
         ------------------------------------------------------------

  ==> Geometry <==

    Molecular point group: c1
    Full point group: C1

    Geometry (in Angstrom), charge = 0, multiplicity = 1:

       Center              X                  Y                   Z               Mass       
    ------------   -----------------  -----------------  -----------------  -----------------
         C           -0.036462680314    -0.724384149731     0.092538082934    12.000000000000
         O           -1.095730204037    -0.765097733224    -0.671667952691    15.994914619560
         H            0.715148998252    -0.715999232050     2.117690840389     1.007825032070
         H           -1.048442917298    -0.461584180848     1.947695154927     1.007825032070
         H            1.009433582297     2.456982971545    -1.093618399783     1.007825032070
         C            1.205175899225     1.418805364229    -0.827958243641    12.000000000000
         H            1.327779157410     0.821539024820    -1.737011032461     1.007825032070
         H            2.111311901293     1.366342591470    -0.224382025368     1.007825032070
         O            0.108955884296     0.938249593469    -0.056954045925    15.994914619560
         H           -0.783227996469     0.533724367316    -0.652831930110     1.007825032070
         C           -0.180943017500    -0.997831905948     1.563342326007    12.000000000000
         H           -0.352629556059    -2.070156402906     1.684987107424     1.007825032070
         H            0.920240802299    -1.066235690757    -0.336697234687     1.007825032070

  Nuclear repulsion =  195.922291395732827

  ==> Basis Set <==

  Basis Set: 6-311++G(D,P)
    Blend: 6-311++G(D,P)
    Number of shells: 90
    Number of basis function: 166
    Number of Cartesian functions: 171
    Spherical Harmonics?: true
    Max angular momentum: 2

  ==> DFJKGrad: Density-Fitted SCF Gradients <==

    Gradient:                    1
    J tasked:                  Yes
    K tasked:                  Yes
    wK tasked:                  No
    OpenMP threads:             16
    Integrals threads:          16
    Memory (MB):               375
    Schwarz Cutoff:          0E+00
    Fitting Condition:       1E-12

   => Auxiliary Basis Set <=

  Basis Set: (6-311++G(D,P) AUX)
    Blend: AUG-CC-PVTZ-JKFIT
    Number of shells: 262
    Number of basis function: 888
    Number of Cartesian functions: 1095
    Spherical Harmonics?: true
    Max angular momentum: 4

  ==> DFT Potential <==

   => Composite Functional: M06-2X <= 

    Hybrid M06-2X Meta-GGA XC Functional

    Y. Zhao and D. G. Truhlar,  Theor. Chem. Acc., 120, 215, 2008


    Deriv               =              1
    GGA                 =           TRUE
    Meta                =           TRUE

    Exchange Hybrid     =           TRUE
    MP2 Hybrid          =          FALSE

   => Exchange Functionals <=

    1.0000   XC_HYB_MGGA_X_M06_2X

   => Exact (HF) Exchange <=

    0.5400               HF 

   => Correlation Functionals <=

    1.0000   XC_MGGA_C_M06_2X

   => Molecular Quadrature <=

    Radial Scheme       =       TREUTLER
    Pruning Scheme      =           FLAT
    Nuclear Scheme      =       TREUTLER

    BS radius alpha     =              1
    Pruning alpha       =              1
    Radial Points       =             75
    Spherical Points    =            302
    Total Points        =         294450
    Total Blocks        =           2245
    Max Points          =            256
    Max Functions       =            166


  -Total Gradient:
     Atom            X                  Y                   Z
    ------   -----------------  -----------------  -----------------
       1        0.000364043553    -0.000381185541     0.000182112023
       2       -0.000122542666     0.000305236340    -0.000096968488
       3       -0.000010586672     0.000009414102     0.000055589731
       4       -0.000012461266     0.000004606890     0.000033772759
       5       -0.000000534222    -0.000046652390    -0.000010600996
       6        0.000030579378    -0.000058827484    -0.000024315420
       7        0.000013652266    -0.000050624312     0.000006672565
       8        0.000016412673    -0.000027272196    -0.000001073372
       9        0.000198440023    -0.000058676354     0.000219722086
      10       -0.000379019393    -0.000242490771    -0.000214093735
      11        0.000028493350     0.000163429705    -0.000116359361
      12       -0.000004969552     0.000018637266    -0.000021648164
      13       -0.000091578211     0.000093022372     0.000138420731


*** tstop() called on localhost.localdomain at Thu Jan 17 12:19:49 2019
Module time:
	user time   =      70.94 seconds =       1.18 minutes
	system time =       2.88 seconds =       0.05 minutes
	total time  =          6 seconds =       0.10 minutes
Total time:
	user time   =    1206.66 seconds =      20.11 minutes
	system time =      31.82 seconds =       0.53 minutes
	total time  =         97 seconds =       1.62 minutes

  //>>>>>>>>>>>>>>>>>>>>>>>>>>>>>>>>>>>//
  //    Loading displacement 4 of 67   //
  //<<<<<<<<<<<<<<<<<<<<<<<<<<<<<<<<<<<//
gradient() will perform analytic gradient computation.

*** tstart() called on localhost.localdomain
*** at Thu Jan 17 12:19:49 2019

   => Loading Basis Set <=

    Name: 6-311++G(D,P)
    Role: ORBITAL
    Keyword: BASIS
    atoms 1, 6, 11            entry C          line   119 file /root/psi4conda/share/psi4/basis/6-311ppg_d_p_.gbs 
    atoms 2, 9                entry O          line   161 file /root/psi4conda/share/psi4/basis/6-311ppg_d_p_.gbs 
    atoms 3-5, 7-8, 10, 12-13 entry H          line    42 file /root/psi4conda/share/psi4/basis/6-311ppg_d_p_.gbs 


         ---------------------------------------------------------
                                   SCF
            by Justin Turney, Rob Parrish, Andy Simmonett
                             and Daniel Smith
                              RKS Reference
                       16 Threads,    500 MiB Core
         ---------------------------------------------------------

  ==> Geometry <==

    Molecular point group: c1
    Full point group: C1

    Geometry (in Angstrom), charge = 0, multiplicity = 1:

       Center              X                  Y                   Z               Mass       
    ------------   -----------------  -----------------  -----------------  -----------------
         C           -0.036462680314    -0.722982958528     0.092527966592    12.000000000000
         O           -1.095729860921    -0.765354993200    -0.671673860815    15.994914619560
         H            0.715161796801    -0.716289472461     2.117677426367     1.007825032070
         H           -1.048431822846    -0.461878481037     1.947693344385     1.007825032070
         H            1.009420184504     2.456739434923    -1.093588067317     1.007825032070
         C            1.205167516396     1.418558772089    -0.827943547507    12.000000000000
         H            1.327768849379     0.821305797961    -1.737005377095     1.007825032070
         H            2.111306445243     1.366090751032    -0.224372179376     1.007825032070
         O            0.108952758412     0.937988022877    -0.056941211441    15.994914619560
         H           -0.783232336487     0.533467986925    -0.652820801210     1.007825032070
         C           -0.180931695408    -0.998117560536     1.563328967217    12.000000000000
         H           -0.352613746017    -2.070444415945     1.684959291610     1.007825032070
         H            0.920243768379    -1.066490308189    -0.336716553369     1.007825032070

  Running in c1 symmetry.

  Rotational constants: A =      0.28053  B =      0.11887  C =      0.09501 [cm^-1]
  Rotational constants: A =   8410.08069  B =   3563.68794  C =   2848.47195 [MHz]
  Nuclear repulsion =  195.938335533113246

  Charge       = 0
  Multiplicity = 1
  Electrons    = 42
  Nalpha       = 21
  Nbeta        = 21

  ==> Algorithm <==

  SCF Algorithm Type is DF.
  DIIS enabled.
  MOM disabled.
  Fractional occupation disabled.
[...]

  Vibration                       16                  17                  18          
  Freq [cm^-1]                 913.2389            989.0667           1064.1476       
  Irrep                           A                   A                   A           
  Reduced mass [u]              1.9006              1.3615              1.4919        
  Force const [mDyne/A]         0.9339              0.7847              0.9954        
  Turning point v=0 [a0]        0.2634              0.2990              0.2754        
  RMS dev v=0 [a0 u^1/2]        0.2567              0.2467              0.2378        
  Char temp [K]               1313.9454           1423.0447           1531.0692       
  ----------------------------------------------------------------------------------
      1   C                0.05  0.07 -0.10   -0.02  0.06  0.03    0.05 -0.00 -0.04   
      2   O               -0.08 -0.03 -0.07    0.03  0.01  0.05    0.03  0.01  0.01   
      3   H               -0.20  0.08  0.50    0.09  0.29 -0.52    0.06  0.01 -0.18   
      4   H               -0.02  0.13 -0.28    0.15  0.24 -0.04    0.04 -0.01  0.24   
      5   H                0.02  0.01 -0.03   -0.11 -0.02  0.05    0.30  0.12 -0.06   
      6   C                0.06  0.02 -0.04    0.02 -0.01 -0.01    0.07  0.06 -0.11   
      7   H                0.03  0.00 -0.02   -0.00  0.04 -0.04    0.28  0.01 -0.04   
      8   H                0.03  0.01 -0.01    0.05  0.05 -0.05   -0.18 -0.12  0.24   
      9   O               -0.02 -0.01  0.02   -0.01 -0.03 -0.00   -0.08 -0.04  0.04   
     10   H               -0.06  0.12  0.05    0.09  0.02 -0.13   -0.46  0.16  0.51   
     11   C                0.06 -0.10  0.17   -0.07 -0.11 -0.07   -0.06 -0.01  0.01   
     12   H               -0.22 -0.01  0.50    0.03 -0.03  0.55    0.09 -0.02  0.08   
     13   H                0.02  0.30 -0.33    0.12  0.38  0.08    0.03 -0.22  0.07   

  Vibration                       19                  20                  21          
  Freq [cm^-1]                1116.2602           1166.0831           1198.3475       
  Irrep                           A                   A                   A           
  Reduced mass [u]              3.2482              1.5317              1.5366        
  Force const [mDyne/A]         2.3846              1.2271              1.3001        
  Turning point v=0 [a0]        0.1822              0.2596              0.2557        
  RMS dev v=0 [a0 u^1/2]        0.2322              0.2272              0.2241        
  Char temp [K]               1606.0475           1677.7314           1724.1527       
  ----------------------------------------------------------------------------------
      1   C                0.08  0.04 -0.16   -0.07  0.00  0.10   -0.04  0.06  0.08   
      2   O               -0.02 -0.05  0.01   -0.00 -0.01 -0.03   -0.00 -0.02 -0.02   
      3   H                0.07 -0.04 -0.20   -0.04  0.08  0.07   -0.04  0.13  0.00   
      4   H                0.06 -0.08  0.60   -0.02  0.06 -0.35    0.03  0.11 -0.28   
      5   H                0.03 -0.03  0.09   -0.09  0.02  0.34    0.51  0.12 -0.36   
      6   C               -0.20 -0.07  0.10   -0.06 -0.08 -0.06   -0.09  0.11  0.03   
      7   H                0.01 -0.03  0.09    0.47  0.24 -0.20   -0.19 -0.33  0.30   
      8   H               -0.26 -0.11  0.21   -0.32  0.04  0.35   -0.15 -0.35  0.09   
      9   O                0.20  0.10 -0.10    0.07  0.05 -0.00    0.07 -0.04 -0.03   
     10   H               -0.20 -0.01  0.29   -0.16 -0.02  0.26   -0.01  0.03  0.04   
     11   C               -0.13 -0.01  0.09    0.07 -0.02 -0.04    0.04 -0.05 -0.03   
     12   H                0.17 -0.05  0.20   -0.13  0.02 -0.03   -0.10 -0.01  0.07   
     13   H                0.10  0.12 -0.20   -0.04  0.12  0.12   -0.10 -0.15  0.12   

  Vibration                       22                  23                  24          
  Freq [cm^-1]                1248.0006           1286.2121           1338.8374       
  Irrep                           A                   A                   A           
  Reduced mass [u]              1.3005              1.2368              1.4663        
  Force const [mDyne/A]         1.1934              1.2055              1.5486        
  Turning point v=0 [a0]        0.2724              0.2751              0.2476        
  RMS dev v=0 [a0 u^1/2]        0.2196              0.2163              0.2120        
  Char temp [K]               1795.5923           1850.5700           1926.2859       
  ----------------------------------------------------------------------------------
      1   C                0.02 -0.09  0.00   -0.01 -0.04  0.03    0.13  0.02 -0.01   
      2   O               -0.05  0.03 -0.02   -0.02  0.01 -0.03   -0.12 -0.01 -0.04   
      3   H                0.05 -0.12  0.00    0.00  0.00  0.02   -0.03 -0.00  0.05   
      4   H               -0.06 -0.10  0.09   -0.03 -0.02 -0.10    0.07  0.07 -0.01   
      5   H                0.26  0.08 -0.09   -0.14 -0.08 -0.08   -0.09 -0.00  0.11   
      6   C               -0.03  0.04 -0.04    0.04 -0.00  0.08   -0.00 -0.01 -0.02   
      7   H                0.15 -0.03  0.02   -0.27 -0.02  0.04   -0.03 -0.03 -0.00   
      8   H               -0.13 -0.13  0.10    0.26  0.11 -0.23   -0.08  0.01  0.10   
      9   O                0.01 -0.05  0.04    0.00  0.00 -0.08   -0.01  0.04  0.01   
     10   H                0.17 -0.15 -0.14   -0.46  0.14  0.50    0.22  0.09 -0.16   
     11   C               -0.01  0.06  0.01    0.03  0.00 -0.01    0.00 -0.03 -0.02   
     12   H                0.04  0.02 -0.14   -0.06  0.01 -0.03    0.06 -0.02  0.14   
     13   H                0.38  0.73  0.15    0.24  0.28  0.34    0.33 -0.41  0.73   

  Vibration                       25                  26                  27          
  Freq [cm^-1]                1395.5338           1464.2650           1477.3634       
  Irrep                           A                   A                   A           
  Reduced mass [u]              1.3234              1.2217              1.0931        
  Force const [mDyne/A]         1.5185              1.5433              1.4057        
  Turning point v=0 [a0]        0.2553              0.2594              0.2730        
  RMS dev v=0 [a0 u^1/2]        0.2077              0.2028              0.2019        
  Char temp [K]               2007.8594           2106.7481           2125.5937       
  ----------------------------------------------------------------------------------
      1   C               -0.05  0.00 -0.01   -0.04  0.01 -0.09   -0.00 -0.00  0.02   
      2   O                0.03  0.00  0.02    0.02  0.00  0.03   -0.01 -0.00 -0.01   
      3   H               -0.25 -0.19  0.44   -0.09  0.53 -0.05   -0.20 -0.05  0.29   
      4   H                0.05 -0.34  0.42    0.04 -0.12  0.18    0.30  0.44  0.06   
      5   H                0.04  0.01 -0.01    0.27  0.02 -0.07    0.34 -0.00 -0.16   
      6   C               -0.01  0.00 -0.00   -0.04 -0.02  0.02   -0.05 -0.03  0.03   
      7   H                0.03  0.00  0.00    0.23  0.14 -0.06    0.19  0.24 -0.12   
      8   H                0.01 -0.01 -0.02    0.13  0.15 -0.21    0.14  0.22 -0.21   
      9   O                0.00 -0.00  0.00   -0.01 -0.00  0.01   -0.01 -0.01  0.00   
     10   H               -0.03 -0.05 -0.02    0.01 -0.04 -0.08   -0.01  0.05  0.02   
     11   C                0.04  0.03 -0.15    0.04 -0.04  0.03   -0.03 -0.02 -0.03   
     12   H               -0.14  0.14  0.57   -0.50  0.02 -0.25    0.45 -0.09 -0.08   
     13   H               -0.01  0.02  0.09    0.10 -0.07  0.24   -0.02  0.01 -0.01   

  Vibration                       28                  29                  30          
  Freq [cm^-1]                1480.9202           1502.9060           1510.8992       
  Irrep                           A                   A                   A           
  Reduced mass [u]              1.0896              1.0739              1.0459        
  Force const [mDyne/A]         1.4080              1.4291              1.4067        
  Turning point v=0 [a0]        0.2732              0.2731              0.2760        
  RMS dev v=0 [a0 u^1/2]        0.2016              0.2001              0.1996        
  Char temp [K]               2130.7112           2162.3438           2173.8443       
  ----------------------------------------------------------------------------------
      1   C                0.00 -0.03  0.02   -0.03  0.00 -0.04    0.01 -0.01  0.01   
      2   O               -0.00  0.01 -0.00    0.02  0.00  0.01   -0.00  0.00 -0.00   
      3   H               -0.29  0.41  0.23   -0.00 -0.08  0.06   -0.02  0.04  0.01   
      4   H                0.33  0.25  0.33    0.02  0.09 -0.07    0.02 -0.00  0.04   
      5   H               -0.33 -0.02  0.09   -0.16  0.10  0.41    0.37  0.19  0.49   
      6   C                0.05  0.03 -0.03   -0.03  0.03 -0.02    0.00 -0.03 -0.05   
      7   H               -0.19 -0.17  0.08    0.46 -0.41  0.33   -0.32 -0.32  0.14   
      8   H               -0.13 -0.23  0.21    0.22 -0.22 -0.39   -0.03  0.58  0.08   
      9   O                0.01  0.00 -0.01   -0.00  0.01 -0.00   -0.00 -0.01 -0.01   
     10   H                0.01 -0.06  0.03   -0.05 -0.02  0.00   -0.01  0.01 -0.00   
     11   C               -0.00 -0.03 -0.03   -0.00 -0.00  0.01   -0.00  0.00 -0.01   
     12   H               -0.02 -0.05 -0.28    0.13 -0.02 -0.01   -0.02  0.00 -0.02   
     13   H                0.00  0.10 -0.08    0.03 -0.00  0.09   -0.02  0.04 -0.06   

  Vibration                       31                  32                  33          
  Freq [cm^-1]                1528.5406           2094.0399           2988.5069       
  Irrep                           A                   A                   A           
  Reduced mass [u]              2.0889              1.0633              1.0864        
  Force const [mDyne/A]         2.8755              2.7471              5.7168        
  Turning point v=0 [a0]        0.1942              0.2325              0.1926        
  RMS dev v=0 [a0 u^1/2]        0.1985              0.1696              0.1419        
  Char temp [K]               2199.2262           3012.8527           4299.7896       
  ----------------------------------------------------------------------------------
      1   C                0.18 -0.02  0.20   -0.00  0.04 -0.01   -0.07  0.02  0.04   
      2   O               -0.09 -0.01 -0.08   -0.00  0.02 -0.01   -0.00 -0.00 -0.00   
      3   H               -0.00  0.22 -0.18    0.00 -0.00 -0.00   -0.04 -0.02 -0.02   
      4   H               -0.01 -0.24  0.28   -0.00  0.00 -0.01   -0.02  0.01  0.01   
      5   H                0.06  0.01  0.03    0.01 -0.00  0.00    0.00 -0.00 -0.00   
      6   C               -0.04 -0.00  0.02    0.00 -0.00  0.00    0.00 -0.00 -0.00   
      7   H                0.33 -0.01  0.07    0.00  0.01  0.01   -0.00  0.02  0.03   
      8   H                0.19 -0.04 -0.32    0.03  0.02 -0.03   -0.02  0.00 -0.01   
      9   O               -0.02  0.00 -0.02   -0.03 -0.01 -0.03    0.00  0.00  0.00   
     10   H                0.09  0.24  0.12    0.59 -0.50  0.63   -0.01 -0.02  0.01   
     11   C               -0.01  0.01 -0.05   -0.00 -0.00  0.00    0.00 -0.00  0.00   
     12   H               -0.30  0.07  0.05    0.00 -0.00  0.02    0.01  0.03  0.00   
     13   H               -0.15 -0.01 -0.48   -0.02 -0.03  0.01    0.86 -0.30 -0.41   

  Vibration                       34                  35                  36          
  Freq [cm^-1]                3057.7545           3072.8767           3141.0872       
  Irrep                           A                   A                   A           
  Reduced mass [u]              1.0357              1.0350              1.0998        
  Force const [mDyne/A]         5.7055              5.7583              6.3933        
  Turning point v=0 [a0]        0.1950              0.1946              0.1867        
  RMS dev v=0 [a0 u^1/2]        0.1403              0.1400              0.1384        
  Char temp [K]               4399.4212           4421.1787           4519.3183       
  ----------------------------------------------------------------------------------
      1   C                0.00 -0.00 -0.00    0.00 -0.00 -0.00    0.00  0.00 -0.00   
      2   O                0.00  0.00  0.00    0.00  0.00  0.00    0.00  0.00  0.00   
      3   H                0.00  0.00  0.00   -0.47 -0.15 -0.28    0.00  0.00  0.00   
      4   H               -0.00  0.00  0.00    0.40 -0.25 -0.17    0.00 -0.00 -0.00   
      5   H                0.08 -0.39  0.09    0.00 -0.00  0.00   -0.10  0.45 -0.13   
      6   C                0.03 -0.01 -0.04    0.00  0.00 -0.00   -0.03 -0.06 -0.06   
      7   H               -0.08  0.44  0.66   -0.00  0.00  0.00   -0.06  0.32  0.48   
      8   H               -0.37  0.02 -0.25   -0.00  0.00 -0.00    0.54 -0.05  0.36   
      9   O                0.00  0.00 -0.00   -0.00  0.00 -0.00   -0.00 -0.00  0.00   
     10   H               -0.01 -0.00 -0.01   -0.00  0.00  0.00    0.00  0.00 -0.00   
     11   C               -0.00  0.00 -0.00   -0.00 -0.02  0.05   -0.00 -0.00  0.00   
     12   H               -0.00 -0.01 -0.00    0.10  0.64 -0.07    0.00  0.00 -0.00   
     13   H               -0.03  0.02  0.01   -0.03  0.01  0.02   -0.01  0.00  0.00   

  Vibration                       37                  38                  39          
  Freq [cm^-1]                3151.0151           3168.3328           3173.1194       
  Irrep                           A                   A                   A           
  Reduced mass [u]              1.1014              1.1069              1.1044        
  Force const [mDyne/A]         6.4432              6.5469              6.5517        
  Turning point v=0 [a0]        0.1863              0.1853              0.1854        
  RMS dev v=0 [a0 u^1/2]        0.1382              0.1378              0.1377        
  Char temp [K]               4533.6022           4558.5185           4565.4054       
  ----------------------------------------------------------------------------------
      1   C               -0.00 -0.00  0.00    0.00 -0.00 -0.00   -0.01  0.00  0.00   
      2   O                0.00  0.00  0.00   -0.00  0.00  0.00    0.00 -0.00 -0.00   
      3   H                0.50  0.15  0.31    0.02  0.01  0.01    0.44  0.15  0.28   
      4   H               -0.23  0.12  0.10    0.02 -0.01 -0.01    0.65 -0.41 -0.29   
      5   H                0.00 -0.01  0.00   -0.14  0.75 -0.18    0.01 -0.03  0.01   
      6   C               -0.00  0.00 -0.00    0.05 -0.07  0.04   -0.00  0.00 -0.00   
      7   H               -0.00  0.00  0.00    0.01  0.02  0.05    0.00 -0.00 -0.00   
      8   H                0.00  0.00 -0.00   -0.50  0.02 -0.35    0.01 -0.00  0.01   
      9   O                0.00  0.00  0.00   -0.00  0.00 -0.00    0.00 -0.00  0.00   
     10   H               -0.00 -0.00 -0.00   -0.00 -0.00  0.00   -0.00 -0.00  0.00   
     11   C               -0.03 -0.08 -0.03   -0.00  0.00 -0.00   -0.09  0.03 -0.00   
     12   H                0.11  0.72 -0.09   -0.00 -0.00 -0.00   -0.04 -0.14  0.02   
     13   H               -0.00  0.00  0.00   -0.01  0.00  0.00    0.04 -0.01 -0.02   

  ==> Thermochemistry Components <==

  Entropy, S
    Electronic S            0.000 [cal/(mol K)]        0.000 [J/(mol K)]       0.00000000 [mEh/K] (multiplicity = 1)
    Translational S        38.902 [cal/(mol K)]      162.766 [J/(mol K)]       0.06199438 [mEh/K] (mol. weight = 76.0524 [u], P = 101325.00 [Pa])
    Rotational S           25.735 [cal/(mol K)]      107.676 [J/(mol K)]       0.04101166 [mEh/K] (symmetry no. = 1)
    Vibrational S          12.564 [cal/(mol K)]       52.569 [J/(mol K)]       0.02002232 [mEh/K]
  Total S                  77.201 [cal/(mol K)]      323.011 [J/(mol K)]       0.12302836 [mEh/K]
  Correction S              0.000 [cal/(mol K)]        0.000 [J/(mol K)]       0.00000000 [mEh/K]

  Constant volume heat capacity, Cv
    Electronic Cv           0.000 [cal/(mol K)]        0.000 [J/(mol K)]       0.00000000 [mEh/K]
    Translational Cv        2.981 [cal/(mol K)]       12.472 [J/(mol K)]       0.00475022 [mEh/K]
    Rotational Cv           2.981 [cal/(mol K)]       12.472 [J/(mol K)]       0.00475022 [mEh/K]
    Vibrational Cv         15.049 [cal/(mol K)]       62.966 [J/(mol K)]       0.02398247 [mEh/K]
  Total Cv                 21.011 [cal/(mol K)]       87.909 [J/(mol K)]       0.03348292 [mEh/K]
  Correction Cv             0.000 [cal/(mol K)]        0.000 [J/(mol K)]       0.00000000 [mEh/K]

  Constant pressure heat capacity, Cp
    Electronic Cp           0.000 [cal/(mol K)]        0.000 [J/(mol K)]       0.00000000 [mEh/K]
    Translational Cp        4.968 [cal/(mol K)]       20.786 [J/(mol K)]       0.00791704 [mEh/K]
    Rotational Cp           2.981 [cal/(mol K)]       12.472 [J/(mol K)]       0.00475022 [mEh/K]
    Vibrational Cp         15.049 [cal/(mol K)]       62.966 [J/(mol K)]       0.02398247 [mEh/K]
  Total Cp                 22.998 [cal/(mol K)]       96.224 [J/(mol K)]       0.03664973 [mEh/K]
  Correction Cp             0.000 [cal/(mol K)]        0.000 [J/(mol K)]       0.00000000 [mEh/K]

  ==> Thermochemistry Energy Analysis <==

  Raw electronic energy, E0
  Total E0, Electronic energy at well bottom at 0 [K]                 -269.46092269 [Eh]

  Zero-point energy, ZPE_vib = Sum_i nu_i / 2
    Electronic ZPE          0.000 [kcal/mol]        0.000 [kJ/mol]       0.00000000 [Eh]
    Translational ZPE       0.000 [kcal/mol]        0.000 [kJ/mol]       0.00000000 [Eh]
    Rotational ZPE          0.000 [kcal/mol]        0.000 [kJ/mol]       0.00000000 [Eh]
    Vibrational ZPE        67.781 [kcal/mol]      283.596 [kJ/mol]       0.10801604 [Eh]       23706.777 [cm^-1]
  Correction ZPE           67.781 [kcal/mol]      283.596 [kJ/mol]       0.10801604 [Eh]       23706.777 [cm^-1]
  Total ZPE, Electronic energy at 0 [K]                               -269.35290665 [Eh]

  Thermal Energy, E (includes ZPE)
    Electronic E            0.000 [kcal/mol]        0.000 [kJ/mol]       0.00000000 [Eh]
    Translational E         0.889 [kcal/mol]        3.718 [kJ/mol]       0.00141628 [Eh]
    Rotational E            0.889 [kcal/mol]        3.718 [kJ/mol]       0.00141628 [Eh]
    Vibrational E          69.953 [kcal/mol]      292.685 [kJ/mol]       0.11147782 [Eh]
  Correction E             71.731 [kcal/mol]      300.122 [kJ/mol]       0.11431038 [Eh]
  Total E, Electronic energy at  298.15 [K]                           -269.34661231 [Eh]

  Enthalpy, H_trans = E_trans + k_B * T
    Electronic H            0.000 [kcal/mol]        0.000 [kJ/mol]       0.00000000 [Eh]
    Translational H         1.481 [kcal/mol]        6.197 [kJ/mol]       0.00236046 [Eh]
    Rotational H            0.889 [kcal/mol]        3.718 [kJ/mol]       0.00141628 [Eh]
    Vibrational H          69.953 [kcal/mol]      292.685 [kJ/mol]       0.11147782 [Eh]
  Correction H             72.323 [kcal/mol]      302.601 [kJ/mol]       0.11525456 [Eh]
  Total H, Enthalpy at  298.15 [K]                                    -269.34566813 [Eh]

  Gibbs free energy, G = H - T * S
    Electronic G            0.000 [kcal/mol]        0.000 [kJ/mol]       0.00000000 [Eh]
    Translational G       -10.117 [kcal/mol]      -42.331 [kJ/mol]      -0.01612316 [Eh]
    Rotational G           -6.784 [kcal/mol]      -28.385 [kJ/mol]      -0.01081135 [Eh]
    Vibrational G          66.207 [kcal/mol]      277.012 [kJ/mol]       0.10550817 [Eh]
  Correction G             49.306 [kcal/mol]      206.295 [kJ/mol]       0.07857366 [Eh]
  Total G, Free enthalpy at  298.15 [K]                               -269.38234903 [Eh]

    Psi4 stopped on: Thursday, 17 January 2019 12:41PM
    Psi4 wall time for execution: 0:23:40.69

*** Psi4 exiting successfully. Buy a developer a beer!
