[Molden Format]

[FREQ]
       -1465.3135874063
         111.5206182445
         188.6917704245
         214.5065414921
         267.4968389082
         300.6183647574
         494.1775434488
         592.3291224750
         716.8737426034
         913.2388845506
         989.0667486595
        1064.1476324641
        1116.2602298108
        1166.0831282117
        1198.3475244893
        1248.0005947677
        1286.2120967573
        1338.8373653235
        1395.5337922323
        1464.2649971054
        1477.3633606104
        1480.9202143811
        1502.9059981783
        1510.8992248137
        1528.5405626512
        2094.0399441555
        2988.5069427585
        3057.7545113709
        3072.8767186436
        3141.0872322051
        3151.0150800556
        3168.3327532886
        3173.1194034945

[FR-COORD]
C         -0.0689044799       -1.3675637242        0.1748620750
O         -2.0706296770       -1.4460682561       -1.2692740652
H          1.3514478438       -1.3533166974        4.0018430480
H         -1.9812594969       -0.8725457625        3.6806087224
H          1.9075403608        4.6427948206       -2.0666106094
C          2.2774444709        2.6809205785       -1.5646004441
H          2.5091292328        1.5522633969       -3.2824697976
H          3.9897961193        2.5817753468       -0.4240112740
O          0.2058938284        1.7727876276       -0.1076154221
H         -1.4800905137        1.0083506403       -1.2336630434
C         -0.3419220509       -1.8858989334        2.9542762259
H         -0.6663583490       -3.9123007866        3.1841378883
H          1.7390058952       -2.0151340272       -0.6362838168

[FR-NORM-COORD]
vibration 1
          -0.0664980092       -0.0809020395       -0.0301518950
           0.0214383227       -0.0478361862        0.0209409223
           0.0043430092        0.0053868987       -0.0022066360
          -0.0038392331       -0.0066272548        0.0048191412
           0.0326753580        0.0133576185       -0.0212243412
           0.0018648801        0.0128908626       -0.0115556294
          -0.0076637923       -0.0151392015        0.0123839631
          -0.0349412749       -0.0165800564        0.0276358082
          -0.0073157563        0.0442587650       -0.0071829924
           0.5281771005        0.8046456983        0.2205778109
           0.0003356359        0.0023856408        0.0024412060
           0.0055205106        0.0023429221        0.0058917752
           0.0171721821        0.0507816599        0.0013114737
vibration 2
           0.0640185130        0.0194487145        0.0493399864
           0.1382459110        0.0575181750       -0.0636280342
          -0.1909315483       -0.1182544042        0.1547504780
          -0.1597343573       -0.0476284754       -0.0634948210
          -0.1345154978       -0.0351742692       -0.1018051259
          -0.1336647101       -0.0551634606       -0.1808796555
          -0.5099201717       -0.0560027103       -0.2316482238
           0.0703111720       -0.1447219990       -0.4968493427
           0.0712217579        0.0316364711        0.1762645042
           0.0125895248        0.0695693812        0.2286071049
          -0.1260746213       -0.0530411477        0.0185130127
          -0.1865876178       -0.0535886727       -0.0712709763
           0.1047988375        0.0276534397        0.1398774236
vibration 3
          -0.0003538157       -0.0133630563        0.0091915950
          -0.0051215445        0.0311228033        0.0133978928
           0.0151201243       -0.1807441619        0.0090219306
           0.0429082766        0.0314985702        0.0276214394
          -0.2986756719       -0.1466064052       -0.4912169482
          -0.0061798596        0.0259141795       -0.0297165080
           0.3067042474       -0.3057811734        0.2292998736
          -0.0720256145        0.5646681065        0.1148626637
           0.0340382525        0.0025161166        0.0114934417
           0.0151087799       -0.0010031517        0.0209350366
          -0.0196550926       -0.0491359271       -0.0008381420
          -0.1468201804       -0.0349636292       -0.0523876340
          -0.0094239301       -0.0253332334        0.0011863306
vibration 4
          -0.0114529821        0.0482733318        0.0047725055
          -0.0033355835        0.0328132923       -0.0069527869
          -0.1522914343        0.4199568207        0.0438838769
          -0.2775048660       -0.4812178058       -0.0586356641
           0.0436151540       -0.1206362375       -0.1747915400
           0.0143211471       -0.0812887489       -0.0020701330
           0.0518560261       -0.2259787985        0.0979314450
          -0.0183385980       -0.0034516942        0.0537316881
          -0.0289096576        0.0412840562        0.0148701361
          -0.0130503857        0.0426967416       -0.0009274025
           0.0221801234       -0.0315497870       -0.0082462272
           0.5772883249       -0.1231264456       -0.0240588166
           0.0019354762        0.0845455506        0.0032220636
vibration 5
          -0.0136743427       -0.1089398486        0.0089447189
          -0.0547072225        0.0129668256        0.0546979286
          -0.2591932446        0.3635867187        0.1097391254
          -0.3249725241       -0.2539774164       -0.1682573896
          -0.1854172224        0.1939985970        0.1472816608
           0.0163330551        0.1793453272       -0.0497639123
           0.0349873686        0.3637771844       -0.1690178025
           0.0843432949        0.2391065019       -0.1463130654
           0.1436903851       -0.0957287580       -0.0370503702
           0.0485226484       -0.0684202878        0.0252469733
          -0.0874637794       -0.0064875869        0.0228907394
           0.2633316913       -0.0513873225        0.1318866963
          -0.0640699703       -0.2342514375        0.0028252747
vibration 6
          -0.0227690908       -0.0630718496       -0.1112712824
          -0.0257308920        0.0185012108       -0.1246537800
           0.1166445096        0.4659534058       -0.2342153407
           0.1042738148        0.3104380460       -0.1212543304
          -0.2545322223       -0.1218672876       -0.0319677614
          -0.0732780142       -0.0593192233        0.0752546656
          -0.0374292377       -0.1466523919        0.1386406355
          -0.0385328067        0.1472005120        0.0390689600
           0.0422748302       -0.1387045409        0.1747843683
          -0.0394735576        0.0884463926        0.2015792080
           0.0785058680        0.2134291519       -0.0478236990
           0.1589339444        0.2477972612        0.3294969924
          -0.0635882454       -0.1675766713       -0.1186849016
vibration 7
           0.1619975174        0.1105471157       -0.1019206551
          -0.0412326813       -0.0890197366        0.2070358876
          -0.2923144194        0.0067366471        0.1982612162
          -0.2216894666        0.0779117186       -0.5696595084
          -0.0090999128       -0.0490748575       -0.0011005467
           0.0011781368       -0.0363388421        0.0252194398
           0.0100993405       -0.0746083646        0.0556928619
          -0.0230520241       -0.0270989358        0.0585869636
           0.0075603932       -0.0384775351        0.0419697510
          -0.0532247902        0.1288483508        0.1736374280
          -0.0613917411        0.0684323875       -0.2002630966
          -0.2206019513        0.0804024899       -0.3431600459
           0.1323632549        0.1819592592       -0.2263919389
vibration 8
          -0.0579174041        0.3015245158        0.0411792577
          -0.0003135106       -0.0255908092       -0.0507047757
           0.0687039394       -0.2063003800        0.0774056141
           0.0168113552       -0.2130682743        0.3916323880
          -0.2827763191       -0.0144516989        0.1729545337
          -0.0054968500       -0.0021889390       -0.0121276472
           0.0445887787        0.1093347691       -0.0665238276
          -0.0297658559        0.0882824619        0.0138871329
           0.0399823712       -0.2341704222       -0.0322964514
           0.1229220499        0.4548568988       -0.0188500764
           0.0093209023        0.0189239845        0.0493296188
           0.0911932558       -0.0431804257       -0.3894984019
          -0.0171705358        0.1576638214        0.2030104738
vibration 9
           0.1561333504       -0.0969003228       -0.0129826440
           0.1356648425        0.3343732397        0.0746886282
          -0.1337852326        0.0165384317        0.2960875548
          -0.0558583968        0.1019448504       -0.3061769332
          -0.1280342897       -0.0625664983        0.1730120187
          -0.1694432845       -0.0979163459        0.0654653753
           0.0442574480        0.0048867404        0.0228028540
          -0.3053455344       -0.1428421313        0.2610271010
          -0.1151283190       -0.1693474296       -0.1934107198
           0.0973274580        0.3513982192       -0.0801652399
           0.0253617682       -0.0341673493        0.0597402473
          -0.1171102070        0.0103594793        0.2309367148
           0.1291200984       -0.1723249802       -0.0495381029
vibration 10
           0.0460057233        0.0716475082       -0.1016481986
          -0.0755405953       -0.0299793834       -0.0712194435
          -0.2011832543        0.0755864750        0.5026500100
          -0.0172381602        0.1273815887       -0.2814545613
           0.0220794243        0.0142237937       -0.0264517782
           0.0551533369        0.0221687844       -0.0354434265
           0.0338638262        0.0033229837       -0.0198924971
           0.0323704005        0.0124221656       -0.0083910328
          -0.0191256820       -0.0058718794        0.0237920347
          -0.0553538222        0.1179354096        0.0462113300
           0.0577269101       -0.1001614046        0.1680482741
          -0.2191403303       -0.0085231356        0.5047262444
           0.0151964055        0.3021864389       -0.3332858364
vibration 11
          -0.0208193099        0.0597368362        0.0277555373
           0.0310509337        0.0052858263        0.0483455811
           0.0934658058        0.2908681524       -0.5221526289
           0.1545647842        0.2374493695       -0.0410142110
          -0.1055777712       -0.0181906250        0.0464503863
           0.0223652118       -0.0067095001       -0.0099647846
          -0.0011849418        0.0409524162       -0.0430577796
           0.0532579277        0.0539641704       -0.0545943982
          -0.0077987766       -0.0267084757       -0.0009393252
           0.0938721330        0.0177074546       -0.1302633338
          -0.0694131704       -0.1060528972       -0.0714141649
           0.0262585078       -0.0328771618        0.5474156555
           0.1243988860        0.3814854881        0.0833294107
vibration 12
           0.0459497027       -0.0005721643       -0.0431062368
           0.0253904566        0.0085567856        0.0132326360
           0.0603209644        0.0114006008       -0.1799990613
           0.0432984700       -0.0116724066        0.2443037026
           0.3044269062        0.1151306969       -0.0560772047
           0.0714508626        0.0622116775       -0.1121175520
           0.2830285755        0.0073011501       -0.0357627348
          -0.1795032914       -0.1226319427        0.2432835184
          -0.0790735322       -0.0445967369        0.0413089199
          -0.4593677457        0.1585851555        0.5088203927
          -0.0602129499       -0.0064832632        0.0088472000
           0.0916836319       -0.0221738543        0.0782059724
           0.0271787165       -0.2206952400        0.0744923097
vibration 13
           0.0842316907        0.0386349441       -0.1640415496
          -0.0225601467       -0.0493563598        0.0121506652
           0.0745778600       -0.0350872628       -0.1972937910
           0.0604765869       -0.0772238388        0.6013617139
           0.0318177594       -0.0268591364        0.0872946927
          -0.1979920179       -0.0737699080        0.1023092301
           0.0146521254       -0.0323376967        0.0889919072
          -0.2612580933       -0.1052965374        0.2132131953
           0.2047941845        0.0967641364       -0.1021543791
          -0.1955847138       -0.0095558163        0.2892096019
          -0.1285637777       -0.0103140389        0.0904326249
           0.1682685764       -0.0473417013        0.2042631123
           0.1001750784        0.1224596604       -0.2003457983
vibration 14
          -0.0713692071        0.0036598509        0.1012264784
          -0.0001198932       -0.0126300064       -0.0328051930
          -0.0435546096        0.0784738158        0.0737452601
          -0.0194769257        0.0607815985       -0.3481954629
          -0.0910177005        0.0193411028        0.3423384297
          -0.0592773667       -0.0810420670       -0.0616568985
           0.4719952010        0.2421509662       -0.2008784638
          -0.3219256289        0.0449070987        0.3503153536
           0.0654552605        0.0507065998       -0.0000716593
          -0.1568123240       -0.0173528364        0.2578531185
           0.0712925263       -0.0211321488       -0.0431455810
          -0.1333381105        0.0169354906       -0.0279143767
          -0.0360711183        0.1234532596        0.1170944775
vibration 15
          -0.0441513071        0.0552732906        0.0757196220
          -0.0020032269       -0.0176284375       -0.0193741546
          -0.0363271836        0.1261383024        0.0006997141
           0.0257911441        0.1054307208       -0.2782761160
           0.5069397842        0.1240029260       -0.3569423908
          -0.0883015873        0.1088424541        0.0259284345
          -0.1879566517       -0.3296541714        0.2972138733
          -0.1549301983       -0.3467273554        0.0874819887
           0.0719328890       -0.0413736348       -0.0306448222
          -0.0148957126        0.0303465236        0.0402565021
           0.0444493391       -0.0483211378       -0.0336560385
          -0.0990747931       -0.0050366682        0.0715153770
          -0.1015376171       -0.1468411203        0.1223192020
vibration 16
           0.0227586494       -0.0906327827        0.0018274014
          -0.0537686783        0.0302528917       -0.0151713683
           0.0512471334       -0.1204958632        0.0046173096
          -0.0629803734       -0.0988867962        0.0882742016
           0.2601732929        0.0768415963       -0.0933996625
          -0.0271829188        0.0351547270       -0.0420934804
           0.1506467840       -0.0321291604        0.0206320690
          -0.1289820333       -0.1270447047        0.1016423139
           0.0078290240       -0.0500131415        0.0356544964
           0.1709639246       -0.1479986388       -0.1387088202
          -0.0064104269        0.0563325751        0.0139833590
           0.0416480045        0.0225953095       -0.1402567876
           0.3753857912        0.7305531464        0.1450611139
vibration 17
          -0.0105940235       -0.0430736937        0.0291631816
          -0.0197541219        0.0055268823       -0.0251938485
           0.0041418140        0.0027775813        0.0224896625
          -0.0257465964       -0.0221942936       -0.0952492876
          -0.1375155396       -0.0772714073       -0.0819929222
           0.0407366641       -0.0041476959        0.0774964254
          -0.2706469719       -0.0157561016        0.0415673774
           0.2555273217        0.1119036855       -0.2270695199
           0.0038684004        0.0000958750       -0.0760804270
          -0.4560546979        0.1393507653        0.5027688812
           0.0290721915        0.0035977278       -0.0108253673
          -0.0630832797        0.0132760896       -0.0340256498
           0.2404350178        0.2780959090        0.3377258289
vibration 18
           0.1254644251        0.0241866045       -0.0097640265
          -0.1198692844       -0.0079114370       -0.0372718991
          -0.0306702320       -0.0046317055        0.0450981756
           0.0731105889        0.0681580104       -0.0051965690
          -0.0893922946       -0.0003906410        0.1080371868
          -0.0002486530       -0.0129438279       -0.0153162850
          -0.0323440523       -0.0261270900       -0.0020104814
          -0.0784157586        0.0071888443        0.0955732793
          -0.0054054260        0.0372073248        0.0124532382
           0.2202996374        0.0923701509       -0.1586235343
           0.0042978971       -0.0260910671       -0.0218649061
           0.0583536264       -0.0155494327        0.1371567639
           0.3251619755       -0.4091690827        0.7328240021
vibration 19
          -0.0532738630        0.0011772649       -0.0102831996
           0.0293133961        0.0022716264        0.0200477348
          -0.2465248167       -0.1938921534        0.4408287400
           0.0497313245       -0.3400889690        0.4243473593
           0.0355288948        0.0081927578       -0.0142676517
          -0.0062577267        0.0031284086       -0.0002567299
           0.0318006720        0.0026880847        0.0030754533
           0.0067140344       -0.0071296300       -0.0187536583
           0.0040137347       -0.0040543286        0.0035291153
          -0.0252775386       -0.0515276307       -0.0172329057
           0.0400105674        0.0342207484       -0.1454500639
          -0.1419738975        0.1361035501        0.5714203273
          -0.0064909554        0.0152192645        0.0937467432
vibration 20
          -0.0370734328        0.0072890348       -0.0898770540
           0.0237488084        0.0044750132        0.0311523732
          -0.0913869000        0.5315928846       -0.0507928066
           0.0444838452       -0.1189498359        0.1849515247
           0.2693328162        0.0184414745       -0.0695447858
          -0.0443419401       -0.0238653101        0.0194536492
           0.2309784075        0.1423301832       -0.0573961776
           0.1300389790        0.1490285774       -0.2141630058
          -0.0081720281       -0.0048448800        0.0149955799
           0.0051001126       -0.0435821863       -0.0783774912
           0.0449255059       -0.0360706231        0.0341402957
          -0.5023937209        0.0229193703       -0.2541731961
           0.1011102474       -0.0690528136        0.2391111978
vibration 21
          -0.0001809064       -0.0012235710        0.0241275764
          -0.0065926065       -0.0010505621       -0.0092150006
          -0.2048025597       -0.0539888562        0.2887754630
           0.2960239144        0.4381653742        0.0558463723
           0.3415006068       -0.0002032639       -0.1620054305
          -0.0456507503       -0.0327408433        0.0335047325
           0.1890502604        0.2372592556       -0.1168438700
           0.1369555381        0.2161388702       -0.2102523319
          -0.0084487011       -0.0101436738        0.0032802567
          -0.0110061965        0.0515245348        0.0203352653
          -0.0332489694       -0.0189793682       -0.0316792216
           0.4515274247       -0.0942608225       -0.0809250867
          -0.0189330532        0.0134181039       -0.0097606518
vibration 22
           0.0029262227       -0.0335573907        0.0193441198
          -0.0023012063        0.0063742816       -0.0042296761
          -0.2938900735        0.4070038862        0.2250275464
           0.3293777800        0.2512167297        0.3343678509
          -0.3347731646       -0.0207617912        0.0852749752
           0.0473199014        0.0309352812       -0.0252677872
          -0.1863348306       -0.1706620519        0.0771422416
          -0.1309656482       -0.2252893935        0.2089562395
           0.0064695125        0.0042033308       -0.0068369055
           0.0081009429       -0.0571975231        0.0306083422
          -0.0031619691       -0.0317157657       -0.0291867716
          -0.0214075597       -0.0475530516       -0.2837187183
           0.0031155403        0.1042240075       -0.0839698131
vibration 23
          -0.0321761725        0.0002287654       -0.0353405717
           0.0158480809        0.0008798002        0.0128159099
          -0.0041458324       -0.0838726738        0.0569225674
           0.0195308853        0.0933490843       -0.0721296733
          -0.1551221292        0.1037124367        0.4087197840
          -0.0346270399        0.0344928116       -0.0227852144
           0.4578919530       -0.4065465514        0.3305201310
           0.2198788348       -0.2249951903       -0.3924496931
          -0.0035854951        0.0088247440       -0.0032004208
          -0.0535060584       -0.0170379675        0.0041111965
          -0.0039303825       -0.0005742288        0.0098849442
           0.1296716399       -0.0249196488       -0.0075152547
           0.0333973680       -0.0002942722        0.0936115920
vibration 24
           0.0064924920       -0.0073541825        0.0138165578
          -0.0019888255        0.0003391580       -0.0032608823
          -0.0200136983        0.0352651719        0.0057256099
           0.0182495847       -0.0030423574        0.0435494441
           0.3672686377        0.1883372777        0.4910102542
           0.0018257397       -0.0263289493       -0.0467355464
          -0.3213636043       -0.3247616991        0.1366121907
          -0.0323899740        0.5829361470        0.0793317538
          -0.0011195829       -0.0083904277       -0.0104136899
          -0.0101770984        0.0055047843       -0.0004325713
          -0.0012560694        0.0004203082       -0.0054240058
          -0.0200103500        0.0027892028       -0.0173092341
          -0.0163187570        0.0368057084       -0.0649185971
vibration 25
           0.1815990030       -0.0161348899        0.1983200531
          -0.0908841246       -0.0069867622       -0.0785306643
          -0.0036993885        0.2228869158       -0.1831531876
          -0.0126252808       -0.2403106239        0.2798015403
           0.0585006919        0.0130641337        0.0348535520
          -0.0374655266       -0.0022367662        0.0202006845
           0.3306673458       -0.0058358872        0.0682966379
           0.1927666529       -0.0411265756       -0.3157260935
          -0.0231287547        0.0002971993       -0.0172753872
           0.0918637357        0.2395477727        0.1158043595
          -0.0097486946        0.0061193310       -0.0543533364
          -0.3030338031        0.0698905858        0.0467426393
          -0.1450693971       -0.0060617681       -0.4808210076
vibration 26
          -0.0046973623        0.0414265650       -0.0143485099
          -0.0045620681        0.0153437107       -0.0071209765
           0.0042358515       -0.0045419731       -0.0033724468
          -0.0027888036        0.0034517725       -0.0078880623
           0.0133881468       -0.0042966403        0.0039399917
           0.0042256371       -0.0007014377        0.0049549568
           0.0020363497        0.0068085087        0.0126327586
           0.0262373960        0.0198276274       -0.0315751085
          -0.0328050616       -0.0115246503       -0.0267885745
           0.5893543956       -0.4951629603        0.6314486616
          -0.0009250368       -0.0036201566        0.0012506232
           0.0020872231       -0.0006983336        0.0190337697
          -0.0248760876       -0.0278017916        0.0109060889
vibration 27
          -0.0712619522        0.0249412402        0.0374522947
          -0.0012513536       -0.0000356454       -0.0021196371
          -0.0437035153       -0.0164956055       -0.0188011429
          -0.0200052850        0.0139137685        0.0055406691
           0.0046652316       -0.0045532198       -0.0017294314
           0.0013600597       -0.0013867125       -0.0015329848
          -0.0035554480        0.0226150601        0.0298981407
          -0.0178749646        0.0025984923       -0.0124342513
           0.0012703518        0.0007237708        0.0001270523
          -0.0081633718       -0.0178075928        0.0053859278
           0.0048973863       -0.0021506556        0.0001243940
           0.0067220694        0.0333917176        0.0001147184
           0.8556112883       -0.2994359074       -0.4055170699
vibration 28
           0.0022609908       -0.0030477511       -0.0014001869
           0.0005041040        0.0004665736        0.0003590358
           0.0035926470        0.0011577983        0.0018405869
          -0.0011833610        0.0001300286        0.0012819296
           0.0758970571       -0.3884776129        0.0908468136
           0.0291249271       -0.0064092101       -0.0402582415
          -0.0806701027        0.4384124438        0.6581757421
          -0.3657374850        0.0174641740       -0.2543513943
           0.0020745597        0.0014647588       -0.0006269522
          -0.0103659532       -0.0040505869       -0.0096289585
          -0.0001500864        0.0007897107       -0.0002042018
          -0.0011261850       -0.0076552413       -0.0002897969
          -0.0332515767        0.0155668176        0.0148282716
vibration 29
           0.0025367683       -0.0009137402       -0.0033735147
           0.0000508979        0.0000839261        0.0001493805
          -0.4690777531       -0.1537446533       -0.2835765641
           0.3979289271       -0.2519652657       -0.1699803608
           0.0002200222       -0.0032962316        0.0010570870
           0.0003723189        0.0000052130       -0.0000740141
          -0.0003304436        0.0022394737        0.0031379606
          -0.0043011977        0.0000435865       -0.0025393877
          -0.0001051092        0.0001532292       -0.0000929442
          -0.0000173924        0.0002270660        0.0004371060
          -0.0027244894       -0.0195174632        0.0454728648
           0.1033173118        0.6373195908       -0.0676123212
          -0.0290770763        0.0086213738        0.0177923193
vibration 30
           0.0005981304        0.0000918903       -0.0003032868
           0.0001615825        0.0001340761        0.0001396676
           0.0014828409        0.0003091148        0.0011066519
           0.0029586079       -0.0020304531       -0.0008608093
          -0.0997870102        0.4498051805       -0.1296399012
          -0.0320208206       -0.0609839425       -0.0601895424
          -0.0621277755        0.3219772090        0.4796289875
           0.5397529168       -0.0489512099        0.3621499756
          -0.0001420187       -0.0002888367        0.0003776932
           0.0029715457        0.0031010992       -0.0028367152
          -0.0005211450       -0.0001288525        0.0000941141
           0.0003105443        0.0024851033       -0.0000616005
          -0.0055223897        0.0023255769        0.0014596741
vibration 31
          -0.0006606534       -0.0024001910        0.0004730956
           0.0001769041        0.0002919860        0.0001028425
           0.5029035779        0.1470204185        0.3084077806
          -0.2302829785        0.1227274889        0.0951920227
           0.0012418044       -0.0053114160        0.0013091286
          -0.0000882340        0.0004911859       -0.0002027192
          -0.0003333685        0.0003648930        0.0009599220
           0.0002640509        0.0002017782       -0.0003087945
           0.0002531550        0.0006685764        0.0000036761
          -0.0024332564       -0.0034328779       -0.0017738077
          -0.0319339746       -0.0822678954       -0.0268103252
           0.1120787257        0.7237722153       -0.0906795005
          -0.0011146649        0.0016926110        0.0012093457
vibration 32
           0.0008973242       -0.0002149654       -0.0005379283
          -0.0000384729        0.0000031863        0.0000135475
           0.0178725430        0.0060102780        0.0106691329
           0.0200796626       -0.0129789082       -0.0089814304
          -0.1445221616        0.7462584886       -0.1796429704
           0.0544371727       -0.0662718516        0.0406229814
           0.0061806320        0.0151606841        0.0490993213
          -0.5043522045        0.0220778061       -0.3494880109
          -0.0003149742        0.0002331704       -0.0001900809
          -0.0026533313       -0.0020336958        0.0024203587
          -0.0031111940        0.0008876136       -0.0001694140
          -0.0008997956       -0.0020788003       -0.0001213175
          -0.0079098048        0.0049114714        0.0035779518
vibration 33
          -0.0055198461        0.0019384131        0.0020254595
           0.0005404873       -0.0001080677       -0.0000245231
           0.4430570620        0.1499599908        0.2788723402
           0.6469927321       -0.4066679576       -0.2934340055
           0.0053977689       -0.0258590861        0.0061659344
          -0.0017140815        0.0024002460       -0.0011856307
           0.0002622425       -0.0014275401       -0.0037626483
           0.0149644263       -0.0001172117        0.0100539372
           0.0003390792       -0.0000904585        0.0001119775
          -0.0018537427       -0.0027177555        0.0012422612
          -0.0875453274        0.0327764112       -0.0002731118
          -0.0390652518       -0.1374768065        0.0165443610
           0.0448057570       -0.0144656627       -0.0238179470
