
    -----------------------------------------------------------------------
          Psi4: An Open-Source Ab Initio Electronic Structure Package
                               Psi4 1.2.1 release

                         Git: Rev {HEAD} 406f4de 


    R. M. Parrish, L. A. Burns, D. G. A. Smith, A. C. Simmonett,
    A. E. DePrince III, E. G. Hohenstein, U. Bozkaya, A. Yu. Sokolov,
    R. Di Remigio, R. M. Richard, J. F. Gonthier, A. M. James,
    H. R. McAlexander, A. Kumar, M. Saitow, X. Wang, B. P. Pritchard,
    P. Verma, H. F. Schaefer III, K. Patkowski, R. A. King, E. F. Valeev,
    F. A. Evangelista, J. M. Turney, T. D. Crawford, and C. D. Sherrill,
    J. Chem. Theory Comput. 13(7) pp 3185--3197 (2017).
    (doi: 10.1021/acs.jctc.7b00174)


                         Additional Contributions by
    P. Kraus, H. Kruse, M. H. Lechner, M. C. Schieber, and R. A. Shaw

    -----------------------------------------------------------------------


    Psi4 started on: Friday, 08 March 2019 03:11PM

    Process ID: 52895
    Host:       localhost.localdomain
    PSIDATADIR: /root/psi4conda/share/psi4
    Memory:     500.0 MiB
    Threads:    1
    
  ==> Input File <==

--------------------------------------------------------------------------
molecule{
0 1
C -0.0364630000 -0.7236840000 0.0925330000

O -1.0957300000 -0.7652260000 -0.6716710000

H -0.9895898216 -3.1422972455 1.2251031174

H 0.7688047960 -3.0318824872 1.4324724706

H 1.0094270000 2.4568610000 -1.0936030000

C 1.2051720000 1.4186820000 -0.8279510000

H 1.3277740000 0.8214220000 -1.7370080000

H 2.1113090000 1.3662170000 -0.2243770000

O 0.1089540000 0.9381190000 -0.0569480000

H -0.7832300000 0.5335960000 -0.6528260000

C -0.2565798470 -1.1180241509 1.5472267227

H -0.3031484839 -2.8546799281 2.8314395648

H 0.9202420000 -1.0663630000 -0.3367070000

C -0.1912383517 -2.6246300707 1.7669940074

H 0.5296809979 -0.6447604272 2.1486254570

H -1.2121450886 -0.7301066180 1.9234129341 
}

set{
   basis 6-311++G(d,p)
   freeze_core True
   opt_type ts
}


set_num_threads(32)
optimize('m06-2x')
--------------------------------------------------------------------------
  Threads set to 32 by Python driver.
gradient() will perform analytic gradient computation.

*** tstart() called on localhost.localdomain
*** at Fri Mar  8 15:11:13 2019

   => Loading Basis Set <=

    Name: 6-311++G(D,P)
    Role: ORBITAL
    Keyword: BASIS
    atoms 1, 6, 11, 14               entry C          line   119 file /root/psi4conda/share/psi4/basis/6-311ppg_d_p_.gbs 
    atoms 2, 9                       entry O          line   161 file /root/psi4conda/share/psi4/basis/6-311ppg_d_p_.gbs 
    atoms 3-5, 7-8, 10, 12-13, 15-16 entry H          line    42 file /root/psi4conda/share/psi4/basis/6-311ppg_d_p_.gbs 


         ---------------------------------------------------------
                                   SCF
            by Justin Turney, Rob Parrish, Andy Simmonett
                             and Daniel Smith
                              RKS Reference
                       32 Threads,    500 MiB Core
         ---------------------------------------------------------

  ==> Geometry <==

    Molecular point group: c1
    Full point group: C1

    Geometry (in Angstrom), charge = 0, multiplicity = 1:

       Center              X                  Y                   Z               Mass       
    ------------   -----------------  -----------------  -----------------  -----------------
         C            0.004918387442    -0.277935685607    -0.183381994251    12.000000000000
         O           -1.054348612558    -0.319477685607    -0.947585994251    15.994914619560
         H           -0.948208434158    -2.696548931107     0.949188123149     1.007825032070
         H            0.810186183442    -2.586134172807     1.156557476349     1.007825032070
         H            1.050808387442     2.902609314393    -1.369517994251     1.007825032070
         C            1.246553387442     1.864430314393    -1.103865994251    12.000000000000
         H            1.369155387442     1.267170314393    -2.012922994251     1.007825032070
         H            2.152690387442     1.811965314393    -0.500291994251     1.007825032070
         O            0.150335387442     1.383867314393    -0.332862994251    15.994914619560
         H           -0.741848612558     0.979344314393    -0.928740994251     1.007825032070
         C           -0.215198459558    -0.672275836507     1.271311728449    12.000000000000
         H           -0.261767096458    -2.408931613707     2.555524570549     1.007825032070
         H            0.961623387442    -0.620614685607    -0.612621994251     1.007825032070
         C           -0.149856964258    -2.178881756307     1.491079013149    12.000000000000
         H            0.571062385342    -0.199012112807     1.872710462749     1.007825032070
         H           -1.170763701158    -0.284358303607     1.647497939849     1.007825032070

  Running in c1 symmetry.

  Rotational constants: A =      0.23889  B =      0.06253  C =      0.05546 [cm^-1]
  Rotational constants: A =   7161.79771  B =   1874.71038  C =   1662.70709 [MHz]
  Nuclear repulsion =  259.007602482700008

  Charge       = 0
  Multiplicity = 1
  Electrons    = 50
  Nalpha       = 25
  Nbeta        = 25

  ==> Algorithm <==

  SCF Algorithm Type is DF.
  DIIS enabled.
  MOM disabled.
  Fractional occupation disabled.
  Guess Type is SAD.
  Energy threshold   = 1.00e-08
  Density threshold  = 1.00e-08
  Integral threshold = 0.00e+00

  ==> Primary Basis <==

  Basis Set: 6-311++G(D,P)
    Blend: 6-311++G(D,P)
    Number of shells: 110
    Number of basis function: 202
    Number of Cartesian functions: 208
    Spherical Harmonics?: true
    Max angular momentum: 2

  ==> DFT Potential <==

   => Composite Functional: M06-2X <= 

    Hybrid M06-2X Meta-GGA XC Functional

    Y. Zhao and D. G. Truhlar,  Theor. Chem. Acc., 120, 215, 2008


    Deriv               =              1
    GGA                 =           TRUE
    Meta                =           TRUE

    Exchange Hybrid     =           TRUE
    MP2 Hybrid          =          FALSE

   => Exchange Functionals <=

    1.0000   XC_HYB_MGGA_X_M06_2X

   => Exact (HF) Exchange <=

    0.5400               HF 

   => Correlation Functionals <=

    1.0000   XC_MGGA_C_M06_2X

   => Molecular Quadrature <=

    Radial Scheme       =       TREUTLER
    Pruning Scheme      =           FLAT
    Nuclear Scheme      =       TREUTLER

    BS radius alpha     =              1
    Pruning alpha       =              1
    Radial Points       =             75
    Spherical Points    =            302
    Total Points        =         362400
    Total Blocks        =           2718
    Max Points          =            256
    Max Functions       =            194

   => Loading Basis Set <=

    Name: (6-311++G(D,P) AUX)
    Role: JKFIT
    Keyword: DF_BASIS_SCF
    atoms 1, 6, 11, 14               entry C          line   162 file /root/psi4conda/share/psi4/basis/aug-cc-pvtz-jkfit.gbs 
    atoms 2, 9                       entry O          line   286 file /root/psi4conda/share/psi4/basis/aug-cc-pvtz-jkfit.gbs 
    atoms 3-5, 7-8, 10, 12-13, 15-16 entry H          line    70 file /root/psi4conda/share/psi4/basis/aug-cc-pvtz-jkfit.gbs 

  ==> Pre-Iterations <==

   -------------------------------------------------------
    Irrep   Nso     Nmo     Nalpha   Nbeta   Ndocc  Nsocc
   -------------------------------------------------------
     A        202     202       0       0       0       0
   -------------------------------------------------------
    Total     202     202      25      25      25       0
   -------------------------------------------------------

  ==> Integral Setup <==

  DFHelper Memory: AOs need 0.412 [GiB]; user supplied 0.366 [GiB]. Turning off in-core AOs.

  ==> MemDFJK: Density-Fitted J/K Matrices <==

    J tasked:                   Yes
    K tasked:                   Yes
    wK tasked:                   No
    OpenMP threads:              32
    Memory (MB):                375
    Algorithm:                 Disk
    Schwarz Cutoff:           1E-12
    Mask sparsity (%):       5.4652
    Fitting Condition:        1E-12

   => Auxiliary Basis Set <=

  Basis Set: (6-311++G(D,P) AUX)
    Blend: AUG-CC-PVTZ-JKFIT
    Number of shells: 320
    Number of basis function: 1084
    Number of Cartesian functions: 1336
    Spherical Harmonics?: true
    Max angular momentum: 4

  Minimum eigenvalue in the overlap matrix is 3.2240098151E-05.
  Using Symmetric Orthogonalization.

  SCF Guess: Superposition of Atomic Densities via on-the-fly atomic UHF.

  ==> Iterations <==

                           Total Energy        Delta E     RMS |[F,P]|

   @DF-RKS iter   0:  -310.19616178020487   -3.10196e+02   1.14931e-01 
   @DF-RKS iter   1:  -308.60741877907071    1.58874e+00   1.11095e-02 
   @DF-RKS iter   2:  -308.62702250688659   -1.96037e-02   1.34414e-02 DIIS
   @DF-RKS iter   3:  -308.75870517653516   -1.31683e-01   2.10980e-03 DIIS
   @DF-RKS iter   4:  -308.76059647376195   -1.89130e-03   9.36080e-04 DIIS
   @DF-RKS iter   5:  -308.76133279056904   -7.36317e-04   2.32572e-04 DIIS
   @DF-RKS iter   6:  -308.76136565098233   -3.28604e-05   1.11457e-04 DIIS
   @DF-RKS iter   7:  -308.76137651626664   -1.08653e-05   1.60146e-05 DIIS
   @DF-RKS iter   8:  -308.76137681962769   -3.03361e-07   5.34471e-06 DIIS
   @DF-RKS iter   9:  -308.76137685273022   -3.31025e-08   1.58612e-06 DIIS
   @DF-RKS iter  10:  -308.76137685544199   -2.71177e-09   2.83448e-07 DIIS
   @DF-RKS iter  11:  -308.76137685559229   -1.50294e-10   1.15245e-07 DIIS
   @DF-RKS iter  12:  -308.76137685560889   -1.65983e-11   3.65419e-08 DIIS
   @DF-RKS iter  13:  -308.76137685561133   -2.44427e-12   9.53786e-09 DIIS

  ==> Post-Iterations <==

    Orbital Energies [Eh]
    ---------------------

    Doubly Occupied:                                                      

       1A    -19.674892     2A    -19.570706     3A    -10.651894  
       4A    -10.606345     5A    -10.539628     6A    -10.531843  
       7A     -1.212544     8A     -1.098932     9A     -0.878224  
      10A     -0.810947    11A     -0.748539    12A     -0.670563  
      13A     -0.627037    14A     -0.564045    15A     -0.559610  
      16A     -0.531186    17A     -0.503590    18A     -0.478926  
      19A     -0.464664    20A     -0.446336    21A     -0.425985  
      22A     -0.414322    23A     -0.404947    24A     -0.340419  
      25A     -0.311474  

    Virtual:                                                              

      26A     -0.007326    27A      0.007247    28A      0.014514  
      29A      0.019934    30A      0.032097    31A      0.035862  
      32A      0.042070    33A      0.053603    34A      0.061415  
      35A      0.064014    36A      0.069957    37A      0.075705  
      38A      0.093856    39A      0.101935    40A      0.105468  
      41A      0.121025    42A      0.123805    43A      0.131068  
      44A      0.138464    45A      0.144925    46A      0.149494  
      47A      0.151980    48A      0.155922    49A      0.160569  
      50A      0.165361    51A      0.177496    52A      0.189593  
      53A      0.210087    54A      0.214025    55A      0.216509  
      56A      0.232813    57A      0.243315    58A      0.250724  
      59A      0.251832    60A      0.257926    61A      0.278336  
      62A      0.285404    63A      0.298823    64A      0.305304  
      65A      0.318581    66A      0.329277    67A      0.338895  
      68A      0.350869    69A      0.356178    70A      0.362542  
      71A      0.377490    72A      0.409035    73A      0.448947  
      74A      0.456745    75A      0.460263    76A      0.472668  
      77A      0.477538    78A      0.497000    79A      0.539203  
      80A      0.557851    81A      0.564655    82A      0.603881  
      83A      0.622332    84A      0.661613    85A      0.668653  
      86A      0.682997    87A      0.688880    88A      0.702553  
      89A      0.710098    90A      0.720086    91A      0.725099  
      92A      0.733333    93A      0.755032    94A      0.763925  
      95A      0.793260    96A      0.815715    97A      0.933021  
      98A      0.937119    99A      0.957349   100A      1.018468  
     101A      1.047115   102A      1.072884   103A      1.096851  
     104A      1.142645   105A      1.205185   106A      1.216921  
     107A      1.253114   108A      1.272744   109A      1.284129  
     110A      1.297849   111A      1.353066   112A      1.370529  
     113A      1.417574   114A      1.473526   115A      1.499711  
     116A      1.513865   117A      1.518617   118A      1.568633  
     119A      1.572215   120A      1.593990   121A      1.596313  
     122A      1.616666   123A      1.643454   124A      1.658227  
     125A      1.659634   126A      1.673880   127A      1.689782  
     128A      1.736226   129A      1.739478   130A      1.746070  
     131A      1.762105   132A      1.779851   133A      1.830587  
     134A      1.849144   135A      1.889734   136A      1.927411  
     137A      1.946467   138A      1.974556   139A      2.052079  
     140A      2.069960   141A      2.130805   142A      2.135546  
     143A      2.162481   144A      2.175830   145A      2.211906  
     146A      2.270252   147A      2.278678   148A      2.371865  
     149A      2.393768   150A      2.455131   151A      2.497892  
     152A      2.513586   153A      2.530126   154A      2.552369  
     155A      2.564943   156A      2.591117   157A      2.610616  
     158A      2.630979   159A      2.641793   160A      2.668546  
     161A      2.674774   162A      2.695167   163A      2.729102  
     164A      2.781309   165A      2.793810   166A      2.868590  
     167A      2.878675   168A      2.933398   169A      2.954425  
     170A      2.976401   171A      3.019560   172A      3.093078  
     173A      3.140043   174A      3.199266   175A      3.236621  
     176A      3.303417   177A      3.409952   178A      3.474492  
     179A      3.593091   180A      3.743222   181A      3.812873  
     182A      3.838943   183A      3.844765   184A      3.850542  
     185A      3.879450   186A      3.931107   187A      4.022727  
     188A      4.127653   189A      4.236629   190A      4.319566  
     191A      5.229511   192A      5.276371   193A      5.323493  
     194A      5.357906   195A      5.647372   196A      5.804783  
     197A     23.867112   198A     23.964973   199A     23.977154  
     200A     24.046595   201A     50.004937   202A     50.138434  

    Final Occupation by Irrep:
              A 
    DOCC [    25 ]

  Energy converged.

  @DF-RKS Final Energy:  -308.76137685561133

   => Energetics <=

    Nuclear Repulsion Energy =            259.0076024827000083
    One-Electron Energy =                -932.5149014184748921
    Two-Electron Energy =                 385.2540245219696544
    DFT Exchange-Correlation Energy =     -20.5081024418061091
    Empirical Dispersion Energy =           0.0000000000000000
    VV10 Nonlocal Energy =                  0.0000000000000000
    Total Energy =                       -308.7613768556113314



Properties will be evaluated at   0.000000,   0.000000,   0.000000 [a0]

Properties computed using the SCF density matrix

  Nuclear Dipole Moment: [e a0]
     X:     3.5514      Y:    -1.7147      Z:     2.5788

  Electronic Dipole Moment: [e a0]
     X:    -2.2993      Y:     2.2461      Z:    -2.3083

  Dipole Moment: [e a0]
     X:     1.2521      Y:     0.5314      Z:     0.2705     Total:     1.3868

  Dipole Moment: [D]
     X:     3.1825      Y:     1.3508      Z:     0.6876     Total:     3.5250


*** tstop() called on localhost.localdomain at Fri Mar  8 15:11:28 2019
Module time:
	user time   =     390.77 seconds =       6.51 minutes
	system time =      15.71 seconds =       0.26 minutes
	total time  =         15 seconds =       0.25 minutes
Total time:
	user time   =     390.77 seconds =       6.51 minutes
	system time =      15.71 seconds =       0.26 minutes
	total time  =         15 seconds =       0.25 minutes

*** tstart() called on localhost.localdomain
*** at Fri Mar  8 15:11:28 2019


         ------------------------------------------------------------
                                   SCF GRAD                          
                          Rob Parrish, Justin Turney,                
                       Andy Simmonett, and Alex Sokolov              
         ------------------------------------------------------------

  ==> Geometry <==

    Molecular point group: c1
    Full point group: C1

    Geometry (in Angstrom), charge = 0, multiplicity = 1:

       Center              X                  Y                   Z               Mass       
    ------------   -----------------  -----------------  -----------------  -----------------
         C            0.004918387442    -0.277935685607    -0.183381994251    12.000000000000
         O           -1.054348612558    -0.319477685607    -0.947585994251    15.994914619560
         H           -0.948208434158    -2.696548931107     0.949188123149     1.007825032070
         H            0.810186183442    -2.586134172807     1.156557476349     1.007825032070
         H            1.050808387442     2.902609314393    -1.369517994251     1.007825032070
         C            1.246553387442     1.864430314393    -1.103865994251    12.000000000000
         H            1.369155387442     1.267170314393    -2.012922994251     1.007825032070
         H            2.152690387442     1.811965314393    -0.500291994251     1.007825032070
         O            0.150335387442     1.383867314393    -0.332862994251    15.994914619560
         H           -0.741848612558     0.979344314393    -0.928740994251     1.007825032070
         C           -0.215198459558    -0.672275836507     1.271311728449    12.000000000000
         H           -0.261767096458    -2.408931613707     2.555524570549     1.007825032070
         H            0.961623387442    -0.620614685607    -0.612621994251     1.007825032070
         C           -0.149856964258    -2.178881756307     1.491079013149    12.000000000000
         H            0.571062385342    -0.199012112807     1.872710462749     1.007825032070
         H           -1.170763701158    -0.284358303607     1.647497939849     1.007825032070

  Nuclear repulsion =  259.007602482700008

  ==> Basis Set <==

  Basis Set: 6-311++G(D,P)
    Blend: 6-311++G(D,P)
    Number of shells: 110
    Number of basis function: 202
    Number of Cartesian functions: 208
    Spherical Harmonics?: true
    Max angular momentum: 2

  ==> DFJKGrad: Density-Fitted SCF Gradients <==

    Gradient:                    1
    J tasked:                  Yes
    K tasked:                  Yes
    wK tasked:                  No
    OpenMP threads:             32
    Integrals threads:          32
    Memory (MB):               375
    Schwarz Cutoff:          0E+00
    Fitting Condition:       1E-12

   => Auxiliary Basis Set <=

  Basis Set: (6-311++G(D,P) AUX)
    Blend: AUG-CC-PVTZ-JKFIT
    Number of shells: 320
    Number of basis function: 1084
    Number of Cartesian functions: 1336
    Spherical Harmonics?: true
    Max angular momentum: 4

  ==> DFT Potential <==

   => Composite Functional: M06-2X <= 

    Hybrid M06-2X Meta-GGA XC Functional

    Y. Zhao and D. G. Truhlar,  Theor. Chem. Acc., 120, 215, 2008


    Deriv               =              1
    GGA                 =           TRUE
    Meta                =           TRUE

    Exchange Hybrid     =           TRUE
    MP2 Hybrid          =          FALSE

   => Exchange Functionals <=

    1.0000   XC_HYB_MGGA_X_M06_2X

   => Exact (HF) Exchange <=

    0.5400               HF 

   => Correlation Functionals <=

    1.0000   XC_MGGA_C_M06_2X

   => Molecular Quadrature <=

    Radial Scheme       =       TREUTLER
    Pruning Scheme      =           FLAT
    Nuclear Scheme      =       TREUTLER

    BS radius alpha     =              1
    Pruning alpha       =              1
    Radial Points       =             75
    Spherical Points    =            302
    Total Points        =         362400
    Total Blocks        =           2718
    Max Points          =            256
    Max Functions       =            194


  -Total Gradient:
     Atom            X                  Y                   Z
    ------   -----------------  -----------------  -----------------
       1        0.014651476138     0.011789585103    -0.006701958876
       2       -0.000180809753    -0.002767350117     0.007898579004
       3       -0.001786442856    -0.001784089510    -0.000235728978
       4        0.001370026860     0.000038859916    -0.000625302729
       5        0.000188294401     0.000056853627    -0.000107327045
       6       -0.000922218988     0.000836868814    -0.000447406708
       7        0.000158114624     0.000114457638    -0.000079920851
       8        0.000092817873    -0.000015749740     0.000030364835
       9        0.002246222450     0.002642949781    -0.004798716241
      10        0.000364383998     0.000474008429     0.000670850604
      11       -0.012504352795    -0.014554299121    -0.008776524138
      12       -0.000592864216    -0.000895136944     0.002510382219
      13       -0.001772295641    -0.000688350244    -0.002095623626
      14        0.000974658445     0.005451930240     0.004515433123
      15        0.000114995443     0.000564375062    -0.000187932098
      16       -0.002307984469    -0.001054580123     0.008379555756


*** tstop() called on localhost.localdomain at Fri Mar  8 15:11:33 2019
Module time:
	user time   =     120.97 seconds =       2.02 minutes
	system time =       4.56 seconds =       0.08 minutes
	total time  =          5 seconds =       0.08 minutes
Total time:
	user time   =     511.79 seconds =       8.53 minutes
	system time =      20.27 seconds =       0.34 minutes
	total time  =         20 seconds =       0.33 minutes

			-----------------------------------------
			 OPTKING 2.0: for geometry optimizations 
			  - R.A. King,  Bethel University        
			-----------------------------------------

	Internal coordinates to be generated automatically.
	Detected frag 1 with atoms:  1 2 3 4 5 6 7 8 9 10 11 12 13 14 15 16
	---Fragment 1 Bond Connectivity---
	 1 : 2 9 11 13
	 2 : 1
	 3 : 14
	 4 : 14
	 5 : 6
	 6 : 5 7 8 9
	 7 : 6
	 8 : 6
	 9 : 1 6 10
	 10 : 9
	 11 : 1 14 15 16
	 12 : 14
	 13 : 1
	 14 : 3 4 11 12
	 15 : 11
	 16 : 11

	---Fragment 1 Geometry and Gradient---
	 C           0.0092944053       -0.5252223284       -0.3465417468
	 O          -1.9924301263       -0.6037253314       -1.7906780165
	 H          -1.7918542575       -5.0957389837        1.7937056013
	 H           1.5310300034       -4.8870853295        2.1855768872
	 H           1.9857400704        5.4851366750       -2.5880139432
	 C           2.3556445123        3.5232626881       -2.0860044165
	 H           2.5873287156        2.3946048579       -3.8038731857
	 H           4.0679952812        3.4241182065       -0.9454148556
	 O           0.2840927103        2.6151302285       -0.6290198989
	 H          -1.4018907098        1.8506925440       -1.7550661275
	 C          -0.4066661528       -1.2704172168        2.4024309963
	 H          -0.4946681229       -4.5522210228        4.8292415642
	 H           1.8172048452       -1.1727917898       -1.1576877921
	 C          -0.2831886216       -4.1174897954        2.8177309773
	 H           1.0791515131       -0.3760783903        3.5389099008
	 H          -2.2124227615       -0.5373593174        3.1133199108
	             0.0146514761        0.0117895851       -0.0067019589
	            -0.0001808098       -0.0027673501        0.0078985790
	            -0.0017864429       -0.0017840895       -0.0002357290
	             0.0013700269        0.0000388599       -0.0006253027
	             0.0001882944        0.0000568536       -0.0001073270
	            -0.0009222190        0.0008368688       -0.0004474067
	             0.0001581146        0.0001144576       -0.0000799209
	             0.0000928179       -0.0000157497        0.0000303648
	             0.0022462225        0.0026429498       -0.0047987162
	             0.0003643840        0.0004740084        0.0006708506
	            -0.0125043528       -0.0145542991       -0.0087765241
	            -0.0005928642       -0.0008951369        0.0025103822
	            -0.0017722956       -0.0006883502       -0.0020956236
	             0.0009746584        0.0054519302        0.0045154331
	             0.0001149954        0.0005643751       -0.0001879321
	            -0.0023079845       -0.0010545801        0.0083795558

	Previous optimization step data not found.  Starting new optimization.

	---Fragment 1 Intrafragment Coordinates---
	 - Coordinate -           - BOHR/RAD -       - ANG/DEG -
	 H(2,10)          =         2.524712	       1.336020
	 R(1,2)           =         2.469533	       1.306821
	 R(1,9)           =         3.164984	       1.674837
	 R(1,11)          =         2.878401	       1.523184
	 R(1,13)          =         2.084669	       1.103159
	 R(3,14)          =         2.069220	       1.094984
	 R(4,14)          =         2.069610	       1.095190
	 R(5,6)           =         2.058590	       1.089359
	 R(6,7)           =         2.068482	       1.094594
	 R(6,8)           =         2.059835	       1.090018
	 R(6,9)           =         2.690508	       1.423756
	 R(9,10)          =         2.166768	       1.146604
	 R(11,14)         =         2.879851	       1.523952
	 R(11,15)         =         2.073422	       1.097208
	 R(11,16)         =         2.074486	       1.097771
	 R(12,14)         =         2.068789	       1.094756
	 B(1,9,6)         =         2.037660	     116.749293
	 B(1,9,10)        =         1.190461	      68.208419
	 B(1,11,14)       =         1.968686	     112.797392
	 B(1,11,15)       =         1.884144	     107.953517
	 B(1,11,16)       =         1.940758	     111.197253
	 B(2,1,9)         =         1.620543	      92.850270
	 B(2,1,11)        =         2.018748	     115.665759
	 B(2,1,13)        =         2.055046	     117.745469
	 B(3,14,4)        =         1.888270	     108.189913
	 B(3,14,11)       =         1.944164	     111.392409
	 B(3,14,12)       =         1.883157	     107.896967
	 B(4,14,11)       =         1.940308	     111.171468
	 B(4,14,12)       =         1.884367	     107.966294
	 B(5,6,7)         =         1.915174	     109.731367
	 B(5,6,8)         =         1.907396	     109.285735
	 B(5,6,9)         =         1.891654	     108.383808
	 B(6,9,10)        =         2.022790	     115.897309
	 B(7,6,8)         =         1.918240	     109.907042
	 B(7,6,9)         =         1.930294	     110.597688
	 B(8,6,9)         =         1.900704	     108.902343
	 B(9,1,11)        =         1.933349	     110.772741
	 B(9,1,13)        =         1.770309	     101.431209
	 B(11,1,13)       =         2.000399	     114.614435
	 B(11,14,12)      =         1.921522	     110.095095
	 B(14,11,15)      =         1.892999	     108.460844
	 B(14,11,16)      =         1.914791	     109.709460
	 B(15,11,16)      =         1.858262	     106.470568
	 D(1,9,6,5)       =         2.842606	     162.869309
	 D(1,9,6,7)       =         0.742466	      42.540151
	 D(1,9,6,8)       =        -1.367210	     -78.335382
	 D(1,11,14,3)     =        -1.104106	     -63.260640
	 D(1,11,14,4)     =         1.003335	      57.486883
	 D(1,11,14,12)    =         3.090725	     177.085512
	 D(2,1,9,6)       =        -1.908821	    -109.367379
	 D(2,1,9,10)      =        -0.006768	      -0.387775
	 D(2,1,11,14)     =         1.474169	      84.463687
	 D(2,1,11,15)     =        -2.717781	    -155.717379
	 D(2,1,11,16)     =        -0.685447	     -39.273218
	 D(3,14,11,15)    =         3.092956	     177.213311
	 D(3,14,11,16)    =         1.069790	      61.294441
	 D(4,14,11,15)    =        -1.082788	     -62.039167
	 D(4,14,11,16)    =        -3.105954	    -177.958037
	 D(5,6,9,10)      =         1.490975	      85.426550
	 D(6,9,1,11)      =         2.299842	     131.771223
	 D(6,9,1,13)      =         0.169050	       9.685838
	 D(7,6,9,10)      =        -0.609165	     -34.902608
	 D(8,6,9,10)      =        -2.718841	    -155.778141
	 D(9,1,11,14)     =        -2.994535	    -171.574198
	 D(9,1,11,15)     =        -0.903300	     -51.755265
	 D(9,1,11,16)     =         1.129034	      64.688897
	 D(10,9,1,11)     =        -2.081291	    -119.249173
	 D(10,9,1,13)     =         2.071103	     118.665442
	 D(12,14,11,15)   =         1.004602	      57.559463
	 D(12,14,11,16)   =        -1.018564	     -58.359407
	 D(13,1,11,14)    =        -1.004638	     -57.561499
	 D(13,1,11,15)    =         1.086597	      62.257434
	 D(13,1,11,16)    =         3.118931	     178.701596

	Current energy   :      -308.7613768556

	Generating empirical Hessian (Schlegel '84) for each fragment.
	Taking PRFO optimization step.
	Maximizing along 1 lowest eigenvalue of Hessian.

 RFO min eigenvalues
 -0.005624 -0.000000 -0.000000 -0.000000 -0.000000 -0.000000 -0.000000 -0.000000
 -0.000000 -0.000000 -0.000000 -0.000000 -0.000000 -0.000000 -0.000000 -0.000000
  0.000000  0.000000  0.000000  0.000000  0.000000  0.000000  0.000000  0.000000
  0.000000  0.000000  0.000000  0.000000  0.000000  0.000000  0.000000  0.001779
  0.001803  0.002078  0.002481  0.033783  0.034198  0.041596  0.047401  0.047764
  0.053417  0.054931  0.071082  0.071945  0.073784  0.083004  0.106059  0.120087
  0.122359  0.160000  0.160000  0.160000  0.160000  0.160000  0.160026  0.175676
  0.215849  0.219751  0.232885  0.285108  0.299899  0.301009  0.333352  0.339359
  0.339928  0.342202  0.342444  0.342711  0.342871  0.348106  0.348868  0.418998
  0.649190

 RFO max eigenvalues
 -0.000000  0.000000
	|RFO target step|  :        0.3624131331
	RFO gradient       :       -0.0155184068
	RFO hessian        :        0.0379897326
	Projected Delta(E) :       -0.0027659389

	Back-transformation to cartesian coordinates...
	Successfully converged to displaced geometry.
	First geometry is closer to target in internal coordinates, so am using that one.
	First geometry has RMS(Delta(q)) = 1.62e-02

	--- Internal Coordinate Step in ANG or DEG, aJ/ANG or AJ/DEG ---
	 ---------------------------------------------------------------------------
	   Coordinate                Previous        Force       Change         New 
	   ----------                --------       ------       ------       ------
	    1 H(2,10)         =      1.336020    -0.006071    -0.009376     1.326644
	    2 R(1,2)          =      1.306821     0.037497     0.003888     1.310708
	    3 R(1,9)          =      1.674837    -0.031906    -0.010126     1.664711
	    4 R(1,11)         =      1.523184    -0.088005    -0.014613     1.508571
	    5 R(1,13)         =      1.103159     0.004174     0.001486     1.104645
	    6 R(3,14)         =      1.094984    -0.018705    -0.001551     1.093433
	    7 R(4,14)         =      1.095190    -0.011316    -0.000582     1.094608
	    8 R(5,6)          =      1.089359    -0.000279     0.000074     1.089432
	    9 R(6,7)          =      1.094594    -0.000199     0.001124     1.095717
	   10 R(6,8)          =      1.090018    -0.000777     0.001058     1.091075
	   11 R(6,9)          =      1.423756    -0.002051     0.000780     1.424536
	   12 R(9,10)         =      1.146604     0.003258     0.001939     1.148544
	   13 R(11,14)        =      1.523952     0.015204     0.004951     1.528903
	   14 R(11,15)        =      1.097208    -0.001736     0.000671     1.097879
	   15 R(11,16)        =      1.097771    -0.037187    -0.005192     1.092579
	   16 R(12,14)        =      1.094756    -0.022230    -0.004047     1.090709
	   17 B(1,9,6)        =    116.749293    -0.000175    -0.603634   116.145659
	   18 B(1,9,10)       =     68.208419     0.000067     0.292567    68.500986
	   19 B(1,11,14)      =    112.797392    -0.000734    -3.222483   109.574909
	   20 B(1,11,15)      =    107.953517     0.000361     2.317172   110.270689
	   21 B(1,11,16)      =    111.197253    -0.000233    -3.598671   107.598582
	   22 B(2,1,9)        =     92.850270     0.000021    -0.213025    92.637245
	   23 B(2,1,11)       =    115.665759     0.000720     3.992041   119.657800
	   24 B(2,1,13)       =    117.745469    -0.000220     0.332440   118.077909
	   25 B(3,14,4)       =    108.189913    -0.000002    -0.076204   108.113709
	   26 B(3,14,11)      =    111.392409    -0.000106    -0.512198   110.880212
	   27 B(3,14,12)      =    107.896967     0.000073     0.373872   108.270839
	   28 B(4,14,11)      =    111.171468     0.000082     0.398331   111.569798
	   29 B(4,14,12)      =    107.966294    -0.000021    -0.089681   107.876613
	   30 B(5,6,7)        =    109.731367     0.000016     0.054621   109.785988
	   31 B(5,6,8)        =    109.285735     0.000008     0.037043   109.322778
	   32 B(5,6,9)        =    108.383808    -0.000021    -0.156492   108.227316
	   33 B(6,9,10)       =    115.897309    -0.000031     0.093627   115.990935
	   34 B(7,6,8)        =    109.907042     0.000009     0.061083   109.968125
	   35 B(7,6,9)        =    110.597688    -0.000020    -0.069002   110.528686
	   36 B(8,6,9)        =    108.902343     0.000008     0.070847   108.973190
	   37 B(9,1,11)       =    110.772741    -0.000864    -3.397946   107.374795
	   38 B(9,1,13)       =    101.431209     0.000381    -0.382846   101.048363
	   39 B(11,1,13)      =    114.614435    -0.000190    -1.692580   112.921854
	   40 B(11,14,12)     =    110.095095    -0.000023    -0.081365   110.013730
	   41 B(14,11,15)     =    108.460844     0.000200     2.040048   110.500891
	   42 B(14,11,16)     =    109.709460     0.000485     1.131768   110.841228
	   43 B(15,11,16)     =    106.470568    -0.000032     1.530393   108.000961
	   44 D(1,9,6,5)      =    162.869309    -0.000001    -0.033584   162.835725
	   45 D(1,9,6,7)      =     42.540151     0.000001     0.039235    42.579386
	   46 D(1,9,6,8)      =    -78.335382    -0.000000    -0.038780   -78.374162
	   47 D(1,11,14,3)    =    -63.260640     0.000049     3.359660   -59.900980
	   48 D(1,11,14,4)    =     57.486883     0.000045     3.183781    60.670664
	   49 D(1,11,14,12)   =    177.085512     0.000047     3.274021   180.359533
	   50 D(2,1,9,6)      =   -109.367379     0.000046    -1.787427  -111.154806
	   51 D(2,1,9,10)     =     -0.387775     0.000054    -1.417355    -1.805130
	   52 D(2,1,11,14)    =     84.463687     0.000016    -4.027894    80.435793
	   53 D(2,1,11,15)    =   -155.717379     0.000025    -2.005001  -157.722380
	   54 D(2,1,11,16)    =    -39.273218     0.000036    -0.883837   -40.157055
	   55 D(3,14,11,15)   =    177.213311     0.000019     1.182003   178.395313
	   56 D(3,14,11,16)   =     61.294441    -0.000058    -2.593090    58.701351
	   57 D(4,14,11,15)   =    -62.039167     0.000015     1.006124   -61.033043
	   58 D(4,14,11,16)   =   -177.958037    -0.000062    -2.768968  -180.727005
	   59 D(5,6,9,10)     =     85.426550    -0.000001    -0.182823    85.243727
	   60 D(6,9,1,11)     =    131.771223    -0.000086    -5.164074   126.607149
	   61 D(6,9,1,13)     =      9.685838     0.000009    -1.561683     8.124155
	   62 D(7,6,9,10)     =    -34.902608     0.000001    -0.110004   -35.012612
	   63 D(8,6,9,10)     =   -155.778141    -0.000000    -0.188019  -155.966160
	   64 D(9,1,11,14)    =   -171.574198    -0.000011    -4.478018  -176.052216
	   65 D(9,1,11,15)    =    -51.755265    -0.000001    -2.455125   -54.210389
	   66 D(9,1,11,16)    =     64.688897     0.000009    -1.333960    63.354936
	   67 D(10,9,1,11)    =   -119.249173    -0.000078    -4.794002  -124.043175
	   68 D(10,9,1,13)    =    118.665442     0.000017    -1.191611   117.473831
	   69 D(12,14,11,15)  =     57.559463     0.000018     1.096364    58.655826
	   70 D(12,14,11,16)  =    -58.359407    -0.000060    -2.678729   -61.038136
	   71 D(13,1,11,14)   =    -57.561499    -0.000060    -7.983296   -65.544795
	   72 D(13,1,11,15)   =     62.257434    -0.000051    -5.960403    56.297032
	   73 D(13,1,11,16)   =    178.701596    -0.000040    -4.839238   173.862357
	 ---------------------------------------------------------------------------
	Successfully symmetrized geometry.

  ==> Convergence Check <==

  Measures of convergence in internal coordinates in au.
  Criteria marked as inactive (o), active & met (*), and active & unmet ( ).
  --------------------------------------------------------------------------------------------- ~
   Step     Total Energy     Delta E     MAX Force     RMS Force      MAX Disp      RMS Disp    ~
  --------------------------------------------------------------------------------------------- ~
    Convergence Criteria    1.00e-06 *    3.00e-04 *             o    1.20e-03 *             o  ~
  --------------------------------------------------------------------------------------------- ~
      1    -308.76137686   -3.09e+02      1.14e-02      3.28e-03 o    1.39e-01      3.89e-02 o  ~
  ---------------------------------------------------------------------------------------------

	Writing optimization data to binary file.
	Structure for next step:
	Cartesian Geometry (in Angstrom)
	    C    -0.0078067223  -0.3131540491  -0.1923849101
	    O    -1.0587260478  -0.3725266292  -0.9734097328
	    H    -0.9825133920  -2.6102474950   0.9287330987
	    H     0.7787658805  -2.6024730092   1.1180182414
	    H     1.0141975752   2.8732563978  -1.3349298421
	    C     1.2196019364   1.8401041555  -1.0569578753
	    H     1.3919257462   1.2408375786  -1.9579464345
	    H     2.1003183797   1.8075686732  -0.4137428771
	    O     0.0984928263   1.3422226799  -0.3327127572
	    H    -0.7624545056   0.9205867829  -0.9652831110
	    C    -0.1493970708  -0.6326894720   1.2751423051
	    H    -0.2612606733  -2.3882146746   2.5298362032
	    H     0.9672539431  -0.6239045091  -0.6082355719
	    C    -0.1527546675  -2.1489611344   1.4712380128
	    H     0.6686437231  -0.1730789641   1.8451478494
	    H    -1.0889455310  -0.1941102285   1.6195637676
			--------------------------
			 OPTKING Finished Execution 
			--------------------------

    Structure for next step:
    Molecular point group: c1
    Full point group: C1

    Geometry (in Angstrom), charge = 0, multiplicity = 1:

    C           -0.001286571002    -0.298613137379    -0.190785011251
    O           -1.052205896540    -0.357985717552    -0.971809833854
    H           -0.975993240752    -2.595706583314     0.930332997641
    H            0.785286031756    -2.587932097523     1.119618140291
    H            1.020717726458     2.887797309521    -1.333329943241
    C            1.226122087676     1.854645067191    -1.055357976430
    H            1.398445897478     1.255378490303    -1.956346535647
    H            2.106838531000     1.822109584845    -0.412142978226
    O            0.105012977554     1.356763591570    -0.331112858333
    H           -0.755934354372     0.935127694587    -0.963683212131
    C           -0.142876919564    -0.618148560327     1.276742204043
    H           -0.254740522011    -2.373673762945     2.531436102056
    H            0.973774094391    -0.609363597405    -0.606635673026
    C           -0.146234516196    -2.134420222688     1.472837911670
    H            0.675163874408    -0.158538052408     1.846747748287
    H           -1.082425379750    -0.179569316764     1.621163666497

gradient() will perform analytic gradient computation.

*** tstart() called on localhost.localdomain
*** at Fri Mar  8 15:11:33 2019

   => Loading Basis Set <=

    Name: 6-311++G(D,P)
    Role: ORBITAL
    Keyword: BASIS
    atoms 1, 6, 11, 14               entry C          line   119 file /root/psi4conda/share/psi4/basis/6-311ppg_d_p_.gbs 
    atoms 2, 9                       entry O          line   161 file /root/psi4conda/share/psi4/basis/6-311ppg_d_p_.gbs 
    atoms 3-5, 7-8, 10, 12-13, 15-16 entry H          line    42 file /root/psi4conda/share/psi4/basis/6-311ppg_d_p_.gbs 


         ---------------------------------------------------------
                                   SCF
            by Justin Turney, Rob Parrish, Andy Simmonett
                             and Daniel Smith
                              RKS Reference
                       32 Threads,    500 MiB Core
         ---------------------------------------------------------

  ==> Geometry <==

    Molecular point group: c1
    Full point group: C1

    Geometry (in Angstrom), charge = 0, multiplicity = 1:

       Center              X                  Y                   Z               Mass       
    ------------   -----------------  -----------------  -----------------  -----------------
         C           -0.001286571002    -0.298613137379    -0.190785011251    12.000000000000
         O           -1.052205896540    -0.357985717552    -0.971809833854    15.994914619560
         H           -0.975993240752    -2.595706583314     0.930332997641     1.007825032070
         H            0.785286031756    -2.587932097523     1.119618140291     1.007825032070
         H            1.020717726458     2.887797309521    -1.333329943241     1.007825032070
         C            1.226122087676     1.854645067191    -1.055357976430    12.000000000000
         H            1.398445897478     1.255378490303    -1.956346535647     1.007825032070
         H            2.106838531000     1.822109584845    -0.412142978226     1.007825032070
         O            0.105012977554     1.356763591570    -0.331112858333    15.994914619560
         H           -0.755934354372     0.935127694587    -0.963683212131     1.007825032070
         C           -0.142876919564    -0.618148560327     1.276742204043    12.000000000000
         H           -0.254740522011    -2.373673762945     2.531436102056     1.007825032070
         H            0.973774094391    -0.609363597405    -0.606635673026     1.007825032070
         C           -0.146234516196    -2.134420222688     1.472837911670    12.000000000000
         H            0.675163874408    -0.158538052408     1.846747748287     1.007825032070
         H           -1.082425379750    -0.179569316764     1.621163666497     1.007825032070

  Running in c1 symmetry.

  Rotational constants: A =      0.23253  B =      0.06512  C =      0.05692 [cm^-1]
  Rotational constants: A =   6970.96621  B =   1952.24937  C =   1706.41845 [MHz]
  Nuclear repulsion =  260.545700082064229

  Charge       = 0
  Multiplicity = 1
  Electrons    = 50
  Nalpha       = 25
  Nbeta        = 25

  ==> Algorithm <==

  SCF Algorithm Type is DF.
  DIIS enabled.
  MOM disabled.
  Fractional occupation disabled.
  Guess Type is READ.
  Energy threshold   = 1.00e-08
  Density threshold  = 1.00e-08
  Integral threshold = 0.00e+00

  ==> Primary Basis <==

  Basis Set: 6-311++G(D,P)
    Blend: 6-311++G(D,P)
    Number of shells: 110
    Number of basis function: 202
    Number of Cartesian functions: 208
    Spherical Harmonics?: true
    Max angular momentum: 2

  ==> DFT Potential <==

   => Composite Functional: M06-2X <= 

    Hybrid M06-2X Meta-GGA XC Functional

    Y. Zhao and D. G. Truhlar,  Theor. Chem. Acc., 120, 215, 2008


    Deriv               =              1
    GGA                 =           TRUE
    Meta                =           TRUE

    Exchange Hybrid     =           TRUE
    MP2 Hybrid          =          FALSE

   => Exchange Functionals <=

    1.0000   XC_HYB_MGGA_X_M06_2X

   => Exact (HF) Exchange <=

    0.5400               HF 

   => Correlation Functionals <=

    1.0000   XC_MGGA_C_M06_2X

   => Molecular Quadrature <=

    Radial Scheme       =       TREUTLER
    Pruning Scheme      =           FLAT
    Nuclear Scheme      =       TREUTLER

    BS radius alpha     =              1
    Pruning alpha       =              1
    Radial Points       =             75
    Spherical Points    =            302
    Total Points        =         362400
    Total Blocks        =           2717
    Max Points          =            256
    Max Functions       =            194

   => Loading Basis Set <=

    Name: (6-311++G(D,P) AUX)
    Role: JKFIT
    Keyword: DF_BASIS_SCF
    atoms 1, 6, 11, 14               entry C          line   162 file /root/psi4conda/share/psi4/basis/aug-cc-pvtz-jkfit.gbs 
    atoms 2, 9                       entry O          line   286 file /root/psi4conda/share/psi4/basis/aug-cc-pvtz-jkfit.gbs 
    atoms 3-5, 7-8, 10, 12-13, 15-16 entry H          line    70 file /root/psi4conda/share/psi4/basis/aug-cc-pvtz-jkfit.gbs 

  Reading orbitals from file 180, no projection.

  ==> Pre-Iterations <==

   -------------------------------------------------------
    Irrep   Nso     Nmo     Nalpha   Nbeta   Ndocc  Nsocc
   -------------------------------------------------------
     A        202     202       0       0       0       0
   -------------------------------------------------------
    Total     202     202      25      25      25       0
   -------------------------------------------------------

  ==> Integral Setup <==

  DFHelper Memory: AOs need 0.413 [GiB]; user supplied 0.366 [GiB]. Turning off in-core AOs.

  ==> MemDFJK: Density-Fitted J/K Matrices <==

    J tasked:                   Yes
    K tasked:                   Yes
    wK tasked:                   No
    OpenMP threads:              32
    Memory (MB):                375
    Algorithm:                 Disk
    Schwarz Cutoff:           1E-12
    Mask sparsity (%):       5.0975
    Fitting Condition:        1E-12

   => Auxiliary Basis Set <=

  Basis Set: (6-311++G(D,P) AUX)
    Blend: AUG-CC-PVTZ-JKFIT
    Number of shells: 320
    Number of basis function: 1084
    Number of Cartesian functions: 1336
    Spherical Harmonics?: true
    Max angular momentum: 4

  Minimum eigenvalue in the overlap matrix is 3.0250935103E-05.
  Using Symmetric Orthogonalization.

  SCF Guess: Orbitals guess was supplied from a previous computation.

  ==> Iterations <==

                           Total Energy        Delta E     RMS |[F,P]|

   @DF-RKS iter   0:  -308.76580049468964   -3.08766e+02   2.71731e-03 
   @DF-RKS iter   1:  -308.76380505145744    1.99544e-03   5.07460e-04 
   @DF-RKS iter   2:  -308.76364365628314    1.61395e-04   1.09083e-03 DIIS
   @DF-RKS iter   3:  -308.76422879403356   -5.85138e-04   6.01827e-05 DIIS
   @DF-RKS iter   4:  -308.76423382059403   -5.02656e-06   3.23635e-05 DIIS
   @DF-RKS iter   5:  -308.76423500777111   -1.18718e-06   9.43955e-06 DIIS
   @DF-RKS iter   6:  -308.76423509750708   -8.97360e-08   1.75688e-06 DIIS
   @DF-RKS iter   7:  -308.76423510308109   -5.57401e-09   9.90827e-07 DIIS
   @DF-RKS iter   8:  -308.76423510441560   -1.33451e-09   3.89457e-07 DIIS
   @DF-RKS iter   9:  -308.76423510461063   -1.95030e-10   1.19504e-07 DIIS
   @DF-RKS iter  10:  -308.76423510463104   -2.04068e-11   3.34575e-08 DIIS
   @DF-RKS iter  11:  -308.76423510463263   -1.59162e-12   8.04100e-09 DIIS

  ==> Post-Iterations <==

    Orbital Energies [Eh]
    ---------------------

    Doubly Occupied:                                                      

       1A    -19.673429     2A    -19.573097     3A    -10.650673  
       4A    -10.606139     5A    -10.539645     6A    -10.531021  
       7A     -1.213702     8A     -1.097753     9A     -0.882217  
      10A     -0.810639    11A     -0.750545    12A     -0.670034  
      13A     -0.626346    14A     -0.565762    15A     -0.560228  
      16A     -0.532851    17A     -0.502807    18A     -0.477035  
      19A     -0.465422    20A     -0.446347    21A     -0.428948  
      22A     -0.412236    23A     -0.406806    24A     -0.341160  
      25A     -0.314794  

    Virtual:                                                              

      26A     -0.007420    27A      0.007474    28A      0.014588  
      29A      0.019686    30A      0.032361    31A      0.036529  
      32A      0.042602    33A      0.053326    34A      0.062473  
      35A      0.065346    36A      0.071559    37A      0.074002  
      38A      0.094423    39A      0.103576    40A      0.107122  
      41A      0.121273    42A      0.123590    43A      0.130797  
      44A      0.138994    45A      0.145506    46A      0.149608  
      47A      0.150211    48A      0.156457    49A      0.161352  
      50A      0.166744    51A      0.178851    52A      0.188827  
      53A      0.210901    54A      0.213689    55A      0.215937  
      56A      0.236218    57A      0.245310    58A      0.248894  
      59A      0.252501    60A      0.259474    61A      0.280100  
      62A      0.283898    63A      0.301094    64A      0.304585  
      65A      0.322419    66A      0.330395    67A      0.336902  
      68A      0.350185    69A      0.354642    70A      0.365093  
      71A      0.374386    72A      0.412299    73A      0.451609  
      74A      0.457099    75A      0.466253    76A      0.473973  
      77A      0.480326    78A      0.499108    79A      0.539271  
      80A      0.554074    81A      0.567472    82A      0.605846  
      83A      0.624231    84A      0.660617    85A      0.666988  
      86A      0.684454    87A      0.697284    88A      0.700915  
      89A      0.712451    90A      0.722820    91A      0.723942  
      92A      0.730237    93A      0.750977    94A      0.769803  
      95A      0.790678    96A      0.816150    97A      0.922189  
      98A      0.945043    99A      0.968401   100A      1.023501  
     101A      1.047940   102A      1.076617   103A      1.099051  
     104A      1.140484   105A      1.210216   106A      1.218541  
     107A      1.250684   108A      1.268354   109A      1.279233  
     110A      1.302969   111A      1.363605   112A      1.385534  
     113A      1.417246   114A      1.474382   115A      1.499039  
     116A      1.516468   117A      1.522770   118A      1.570918  
     119A      1.576250   120A      1.595307   121A      1.597652  
     122A      1.615452   123A      1.641156   124A      1.656614  
     125A      1.668919   126A      1.670544   127A      1.684524  
     128A      1.729745   129A      1.742223   130A      1.748568  
     131A      1.771276   132A      1.777460   133A      1.824242  
     134A      1.860088   135A      1.901017   136A      1.933324  
     137A      1.948207   138A      1.967288   139A      2.048596  
     140A      2.080977   141A      2.124674   142A      2.145210  
     143A      2.172639   144A      2.178803   145A      2.222393  
     146A      2.267159   147A      2.283441   148A      2.380790  
     149A      2.397473   150A      2.454817   151A      2.503321  
     152A      2.516799   153A      2.530900   154A      2.555217  
     155A      2.570883   156A      2.596172   157A      2.611101  
     158A      2.635942   159A      2.644012   160A      2.669422  
     161A      2.680859   162A      2.710409   163A      2.735942  
     164A      2.785288   165A      2.803765   166A      2.857840  
     167A      2.880344   168A      2.930190   169A      2.955045  
     170A      2.983036   171A      3.025396   172A      3.097156  
     173A      3.145736   174A      3.203499   175A      3.233428  
     176A      3.291463   177A      3.425361   178A      3.493450  
     179A      3.597492   180A      3.745630   181A      3.821065  
     182A      3.839449   183A      3.848062   184A      3.855917  
     185A      3.890734   186A      3.932249   187A      4.026536  
     188A      4.121542   189A      4.252557   190A      4.310319  
     191A      5.239259   192A      5.277607   193A      5.327477  
     194A      5.360895   195A      5.646899   196A      5.803303  
     197A     23.871127   198A     23.966013   199A     23.977650  
     200A     24.055807   201A     50.008206   202A     50.137865  

    Final Occupation by Irrep:
              A 
    DOCC [    25 ]

  Energy converged.

  @DF-RKS Final Energy:  -308.76423510463263

   => Energetics <=

    Nuclear Repulsion Energy =            260.5457000820642293
    One-Electron Energy =                -935.5681861962818857
    Two-Electron Energy =                 386.7711080700139519
    DFT Exchange-Correlation Energy =     -20.5128570604289919
    Empirical Dispersion Energy =           0.0000000000000000
    VV10 Nonlocal Energy =                  0.0000000000000000
    Total Energy =                       -308.7642351046326326



Properties will be evaluated at   0.000000,   0.000000,   0.000000 [a0]

Properties computed using the SCF density matrix

  Nuclear Dipole Moment: [e a0]
     X:     3.6433      Y:    -1.4992      Z:     2.5972

  Electronic Dipole Moment: [e a0]
     X:    -2.3843      Y:     2.0630      Z:    -2.2983

  Dipole Moment: [e a0]
     X:     1.2590      Y:     0.5638      Z:     0.2990     Total:     1.4115

  Dipole Moment: [D]
     X:     3.2001      Y:     1.4330      Z:     0.7600     Total:     3.5877


*** tstop() called on localhost.localdomain at Fri Mar  8 15:11:45 2019
Module time:
	user time   =     337.21 seconds =       5.62 minutes
	system time =      12.17 seconds =       0.20 minutes
	total time  =         12 seconds =       0.20 minutes
Total time:
	user time   =     851.16 seconds =      14.19 minutes
	system time =      32.61 seconds =       0.54 minutes
	total time  =         32 seconds =       0.53 minutes

*** tstart() called on localhost.localdomain
*** at Fri Mar  8 15:11:45 2019


         ------------------------------------------------------------
                                   SCF GRAD                          
                          Rob Parrish, Justin Turney,                
                       Andy Simmonett, and Alex Sokolov              
         ------------------------------------------------------------

  ==> Geometry <==

    Molecular point group: c1
    Full point group: C1

    Geometry (in Angstrom), charge = 0, multiplicity = 1:

       Center              X                  Y                   Z               Mass       
    ------------   -----------------  -----------------  -----------------  -----------------
         C           -0.001286571002    -0.298613137379    -0.190785011251    12.000000000000
         O           -1.052205896540    -0.357985717552    -0.971809833854    15.994914619560
         H           -0.975993240752    -2.595706583314     0.930332997641     1.007825032070
         H            0.785286031756    -2.587932097523     1.119618140291     1.007825032070
         H            1.020717726458     2.887797309521    -1.333329943241     1.007825032070
         C            1.226122087676     1.854645067191    -1.055357976430    12.000000000000
         H            1.398445897478     1.255378490303    -1.956346535647     1.007825032070
         H            2.106838531000     1.822109584845    -0.412142978226     1.007825032070
         O            0.105012977554     1.356763591570    -0.331112858333    15.994914619560
         H           -0.755934354372     0.935127694587    -0.963683212131     1.007825032070
         C           -0.142876919564    -0.618148560327     1.276742204043    12.000000000000
         H           -0.254740522011    -2.373673762945     2.531436102056     1.007825032070
         H            0.973774094391    -0.609363597405    -0.606635673026     1.007825032070
         C           -0.146234516196    -2.134420222688     1.472837911670    12.000000000000
         H            0.675163874408    -0.158538052408     1.846747748287     1.007825032070
         H           -1.082425379750    -0.179569316764     1.621163666497     1.007825032070

  Nuclear repulsion =  260.545700082064229

  ==> Basis Set <==

  Basis Set: 6-311++G(D,P)
    Blend: 6-311++G(D,P)
    Number of shells: 110
    Number of basis function: 202
    Number of Cartesian functions: 208
    Spherical Harmonics?: true
    Max angular momentum: 2

  ==> DFJKGrad: Density-Fitted SCF Gradients <==

    Gradient:                    1
    J tasked:                  Yes
    K tasked:                  Yes
    wK tasked:                  No
    OpenMP threads:             32
    Integrals threads:          32
    Memory (MB):               375
    Schwarz Cutoff:          0E+00
    Fitting Condition:       1E-12

   => Auxiliary Basis Set <=

  Basis Set: (6-311++G(D,P) AUX)
    Blend: AUG-CC-PVTZ-JKFIT
    Number of shells: 320
    Number of basis function: 1084
    Number of Cartesian functions: 1336
    Spherical Harmonics?: true
    Max angular momentum: 4

  ==> DFT Potential <==

   => Composite Functional: M06-2X <= 

    Hybrid M06-2X Meta-GGA XC Functional

    Y. Zhao and D. G. Truhlar,  Theor. Chem. Acc., 120, 215, 2008


    Deriv               =              1
    GGA                 =           TRUE
    Meta                =           TRUE

    Exchange Hybrid     =           TRUE
    MP2 Hybrid          =          FALSE

   => Exchange Functionals <=

    1.0000   XC_HYB_MGGA_X_M06_2X

   => Exact (HF) Exchange <=

    0.5400               HF 

   => Correlation Functionals <=

    1.0000   XC_MGGA_C_M06_2X

   => Molecular Quadrature <=

    Radial Scheme       =       TREUTLER
    Pruning Scheme      =           FLAT
    Nuclear Scheme      =       TREUTLER

    BS radius alpha     =              1
    Pruning alpha       =              1
    Radial Points       =             75
    Spherical Points    =            302
    Total Points        =         362400
    Total Blocks        =           2717
    Max Points          =            256
    Max Functions       =            194


  -Total Gradient:
     Atom            X                  Y                   Z
    ------   -----------------  -----------------  -----------------
       1       -0.001063389975    -0.003829685013    -0.001222708585
       2       -0.001054257707     0.002312793763     0.000028465091
       3       -0.001054580641    -0.001384190161    -0.000251631867
       4        0.000742676882    -0.000985822512    -0.000227708880
       5       -0.000294339087     0.000009358625     0.000044501562
       6       -0.000085065344    -0.000210924813    -0.000227359562
       7        0.000120494846    -0.000484070866    -0.000663135094
       8        0.000584802779     0.000125740686     0.000381973242
       9       -0.002207046512     0.000033747485    -0.000756217342
      10        0.002214339157     0.001380097273    -0.000107829044
      11       -0.000535518410    -0.002325691073    -0.000838890744
      12       -0.000048111639     0.000804469753     0.000028878658
      13        0.000461258893     0.001359528882     0.000806294015
      14        0.001349329716     0.001597746658    -0.000073497756
      15        0.001103586851     0.001369237049     0.002955002362
      16       -0.000023333413     0.000411225491     0.000136001975


*** tstop() called on localhost.localdomain at Fri Mar  8 15:11:50 2019
Module time:
	user time   =     115.50 seconds =       1.93 minutes
	system time =       4.60 seconds =       0.08 minutes
	total time  =          5 seconds =       0.08 minutes
Total time:
	user time   =     966.74 seconds =      16.11 minutes
	system time =      37.22 seconds =       0.62 minutes
	total time  =         37 seconds =       0.62 minutes

			-----------------------------------------
			 OPTKING 2.0: for geometry optimizations 
			  - R.A. King,  Bethel University        
			-----------------------------------------

	Previous internal coordinate definitions found.
	---Fragment 1 Geometry and Gradient---
	 C          -0.0024312668       -0.5642970493       -0.3605314215
	 O          -1.9883809799       -0.6764949657       -1.8364544392
	 H          -1.8443599326       -4.9051745638        1.7580745779
	 H           1.4839755360       -4.8904829148        2.1157716586
	 H           1.9288769620        5.4571460423       -2.5196284375
	 C           2.3170349512        3.5047712507       -1.9943375476
	 H           2.6426797579        2.3723215398       -3.6969591734
	 H           3.9813478298        3.4432880995       -0.7788373564
	 O           0.1984457680        2.5639116151       -0.6257126213
	 H          -1.4285089042        1.7671352420       -1.8210973498
	 C          -0.2699982487       -1.1681314885        2.4126931079
	 H          -0.4813898215       -4.4855933408        4.7837209558
	 H           1.8401663537       -1.1515303144       -1.1463752845
	 C          -0.2763431868       -4.0334696734        2.7832602912
	 H           1.2758748174       -0.2995935007        3.4898474808
	 H          -2.0454875270       -0.3393368306        3.0635553463
	            -0.0010633900       -0.0038296850       -0.0012227086
	            -0.0010542577        0.0023127938        0.0000284651
	            -0.0010545806       -0.0013841902       -0.0002516319
	             0.0007426769       -0.0009858225       -0.0002277089
	            -0.0002943391        0.0000093586        0.0000445016
	            -0.0000850653       -0.0002109248       -0.0002273596
	             0.0001204948       -0.0004840709       -0.0006631351
	             0.0005848028        0.0001257407        0.0003819732
	            -0.0022070465        0.0000337475       -0.0007562173
	             0.0022143392        0.0013800973       -0.0001078290
	            -0.0005355184       -0.0023256911       -0.0008388907
	            -0.0000481116        0.0008044698        0.0000288787
	             0.0004612589        0.0013595289        0.0008062940
	             0.0013493297        0.0015977467       -0.0000734978
	             0.0011035869        0.0013692370        0.0029550024
	            -0.0000233334        0.0004112255        0.0001360020

	---Fragment 1 Intrafragment Coordinates---
	 - Coordinate -           - BOHR/RAD -       - ANG/DEG -
	 H(2,10)          =         2.506994	       1.326644
	 R(1,2)           =         2.476880	       1.310708
	 R(1,9)           =         3.145848	       1.664711
	 R(1,11)          =         2.850786	       1.508571
	 R(1,13)          =         2.087477	       1.104645
	 R(3,14)          =         2.066289	       1.093433
	 R(4,14)          =         2.068510	       1.094608
	 R(5,6)           =         2.058729	       1.089432
	 R(6,7)           =         2.070606	       1.095717
	 R(6,8)           =         2.061834	       1.091075
	 R(6,9)           =         2.691983	       1.424536
	 R(9,10)          =         2.170433	       1.148544
	 R(11,14)         =         2.889208	       1.528903
	 R(11,15)         =         2.074691	       1.097879
	 R(11,16)         =         2.064675	       1.092579
	 R(12,14)         =         2.061141	       1.090709
	 B(1,9,6)         =         2.027124	     116.145659
	 B(1,9,10)        =         1.195568	      68.500986
	 B(1,11,14)       =         1.912443	     109.574909
	 B(1,11,15)       =         1.924587	     110.270689
	 B(1,11,16)       =         1.877950	     107.598582
	 B(2,1,9)         =         1.616825	      92.637245
	 B(2,1,11)        =         2.088423	     119.657800
	 B(2,1,13)        =         2.060848	     118.077909
	 B(3,14,4)        =         1.886940	     108.113709
	 B(3,14,11)       =         1.935225	     110.880212
	 B(3,14,12)       =         1.889683	     108.270839
	 B(4,14,11)       =         1.947260	     111.569798
	 B(4,14,12)       =         1.882802	     107.876613
	 B(5,6,7)         =         1.916127	     109.785988
	 B(5,6,8)         =         1.908042	     109.322778
	 B(5,6,9)         =         1.888923	     108.227316
	 B(6,9,10)        =         2.024424	     115.990935
	 B(7,6,8)         =         1.919306	     109.968125
	 B(7,6,9)         =         1.929089	     110.528686
	 B(8,6,9)         =         1.901941	     108.973190
	 B(9,1,11)        =         1.874044	     107.374795
	 B(9,1,13)        =         1.763627	     101.048363
	 B(11,1,13)       =         1.970858	     112.921854
	 B(11,14,12)      =         1.920102	     110.013730
	 B(14,11,15)      =         1.928604	     110.500891
	 B(14,11,16)      =         1.934544	     110.841228
	 B(15,11,16)      =         1.884972	     108.000961
	 D(1,9,6,5)       =         2.842020	     162.835725
	 D(1,9,6,7)       =         0.743150	      42.579386
	 D(1,9,6,8)       =        -1.367887	     -78.374162
	 D(1,11,14,3)     =        -1.045469	     -59.900980
	 D(1,11,14,4)     =         1.058903	      60.670664
	 D(1,11,14,12)    =        -3.135318	    -179.640467
	 D(2,1,9,6)       =        -1.940017	    -111.154806
	 D(2,1,9,10)      =        -0.031505	      -1.805130
	 D(2,1,11,14)     =         1.403869	      80.435793
	 D(2,1,11,15)     =        -2.752775	    -157.722380
	 D(2,1,11,16)     =        -0.700873	     -40.157055
	 D(3,14,11,15)    =         3.113586	     178.395313
	 D(3,14,11,16)    =         1.024532	      58.701351
	 D(4,14,11,15)    =        -1.065228	     -61.033043
	 D(4,14,11,16)    =         3.128904	     179.272995
	 D(5,6,9,10)      =         1.487784	      85.243727
	 D(6,9,1,11)      =         2.209712	     126.607149
	 D(6,9,1,13)      =         0.141793	       8.124155
	 D(7,6,9,10)      =        -0.611085	     -35.012612
	 D(8,6,9,10)      =        -2.722123	    -155.966160
	 D(9,1,11,14)     =        -3.072691	    -176.052216
	 D(9,1,11,15)     =        -0.946150	     -54.210389
	 D(9,1,11,16)     =         1.105752	      63.354936
	 D(10,9,1,11)     =        -2.164962	    -124.043175
	 D(10,9,1,13)     =         2.050305	     117.473831
	 D(12,14,11,15)   =         1.023737	      58.655826
	 D(12,14,11,16)   =        -1.065316	     -61.038136
	 D(13,1,11,14)    =        -1.143972	     -65.544795
	 D(13,1,11,15)    =         0.982569	      56.297032
	 D(13,1,11,16)    =         3.034471	     173.862357

	Current energy   :      -308.7642351046

	Energy change for the previous step:
		Projected    :        -0.0027659389
		Actual       :        -0.0028582490

	Performing Bofill update.
	Previous computed or guess Hessian on step 1.
	Steps to be used in Hessian update: 1
	Taking PRFO optimization step.
	Maximizing along 1 lowest eigenvalue of Hessian.

 RFO min eigenvalues
 -0.000338 -0.000000 -0.000000 -0.000000 -0.000000 -0.000000 -0.000000 -0.000000
 -0.000000 -0.000000 -0.000000 -0.000000 -0.000000 -0.000000 -0.000000 -0.000000
 -0.000000  0.000000  0.000000  0.000000  0.000000  0.000000  0.000000  0.000000
  0.000000  0.000000  0.000000  0.000000  0.000000  0.000000  0.000000  0.000000
  0.001780  0.001811  0.004104  0.033346  0.034039  0.045538  0.046463  0.049979
  0.053787  0.054932  0.071097  0.071443  0.073784  0.081993  0.106028  0.120016
  0.124411  0.159903  0.159997  0.159999  0.160000  0.160000  0.160914  0.175319
  0.213446  0.217823  0.233170  0.285828  0.299794  0.301126  0.333379  0.339395
  0.340856  0.342199  0.342431  0.342754  0.342886  0.348105  0.348869  0.419028
  0.649213

 RFO max eigenvalues
 -0.002343  0.001311
	Change in coordinate exceeds step limit of    0.50000.
	Scaling displacements by    0.66521
	|RFO target step|  :        0.5000000000
	RFO gradient       :        0.0012953553
	RFO hessian        :       -0.0004268235
	Projected Delta(E) :        0.0004754598

	Back-transformation to cartesian coordinates...
	Could not converge backtransformation.
	Using first guess instead.

	--- Internal Coordinate Step in ANG or DEG, aJ/ANG or AJ/DEG ---
	 ---------------------------------------------------------------------------
	   Coordinate                Previous        Force       Change         New 
	   ----------                --------       ------       ------       ------
	    1 H(2,10)         =      1.326644     0.000420     0.003980     1.330624
	    2 R(1,2)          =      1.310708    -0.006152     0.002526     1.313235
	    3 R(1,9)          =      1.664711    -0.007815     0.002900     1.667611
	    4 R(1,11)         =      1.508571    -0.013759    -0.002588     1.505983
	    5 R(1,13)         =      1.104645     0.002363     0.001275     1.105920
	    6 R(3,14)         =      1.093433    -0.012587     0.002582     1.096015
	    7 R(4,14)         =      1.094608    -0.009074     0.003095     1.097703
	    8 R(5,6)          =      1.089432    -0.000336     0.001409     1.090842
	    9 R(6,7)          =      1.095717    -0.006892    -0.000252     1.095466
	   10 R(6,8)          =      1.091075    -0.005666     0.000223     1.091298
	   11 R(6,9)          =      1.424536    -0.002106     0.000699     1.425235
	   12 R(9,10)         =      1.148544     0.017481     0.000836     1.149379
	   13 R(11,14)        =      1.528903     0.000517     0.005255     1.534158
	   14 R(11,15)        =      1.097879    -0.024002     0.004036     1.101915
	   15 R(11,16)        =      1.092579    -0.001956     0.003504     1.096083
	   16 R(12,14)        =      1.090709     0.001148     0.000301     1.091010
	   17 B(1,9,6)        =    116.145659     0.000107     0.023081   116.168741
	   18 B(1,9,10)       =     68.500986    -0.000075     0.004100    68.505086
	   19 B(1,11,14)      =    109.574909    -0.000037     0.162817   109.737726
	   20 B(1,11,15)      =    110.270689    -0.000070    -0.039614   110.231074
	   21 B(1,11,16)      =    107.598582     0.000041    -0.107116   107.491466
	   22 B(2,1,9)        =     92.637245     0.000130     0.004654    92.641899
	   23 B(2,1,11)       =    119.657800    -0.000039    -0.037456   119.620344
	   24 B(2,1,13)       =    118.077909    -0.000068     0.149769   118.227678
	   25 B(3,14,4)       =    108.113709     0.000057     0.111685   108.225394
	   26 B(3,14,11)      =    110.880212    -0.000101     0.117569   110.997781
	   27 B(3,14,12)      =    108.270839     0.000008    -0.176212   108.094627
	   28 B(4,14,11)      =    111.569798    -0.000070     0.044426   111.614224
	   29 B(4,14,12)      =    107.876613    -0.000012    -0.080632   107.795981
	   30 B(5,6,7)        =    109.785988    -0.000011     0.057518   109.843505
	   31 B(5,6,8)        =    109.322778    -0.000007    -0.003342   109.319436
	   32 B(5,6,9)        =    108.227316     0.000036     0.003307   108.230624
	   33 B(6,9,10)       =    115.990935     0.000087     0.008380   115.999315
	   34 B(7,6,8)        =    109.968125    -0.000002    -0.054269   109.913857
	   35 B(7,6,9)        =    110.528686     0.000001    -0.064516   110.464170
	   36 B(8,6,9)        =    108.973190    -0.000017     0.062775   109.035965
	   37 B(9,1,11)       =    107.374795    -0.000158    -0.021352   107.353443
	   38 B(9,1,13)       =    101.048363     0.000116    -0.190987   100.857377
	   39 B(11,1,13)      =    112.921854     0.000052     0.013773   112.935627
	   40 B(11,14,12)     =    110.013730     0.000121    -0.027496   109.986234
	   41 B(14,11,15)     =    110.500891     0.000071     0.005029   110.505920
	   42 B(14,11,16)     =    110.841228    -0.000037    -0.053938   110.787291
	   43 B(15,11,16)     =    108.000961     0.000031     0.026727   108.027688
	   44 D(1,9,6,5)      =    162.835725     0.000001    -0.903951   161.931774
	   45 D(1,9,6,7)      =     42.579386    -0.000002    -0.937764    41.641622
	   46 D(1,9,6,8)      =    -78.374162     0.000001    -0.870576   -79.244738
	   47 D(1,11,14,3)    =    -59.900980     0.000001    -1.199337   -61.100316
	   48 D(1,11,14,4)    =     60.670664    -0.000009    -0.946198    59.724466
	   49 D(1,11,14,12)   =   -179.640467    -0.000005    -1.036878  -180.677345
	   50 D(2,1,9,6)      =   -111.154806    -0.000001    -1.096740  -112.251546
	   51 D(2,1,9,10)     =     -1.805130     0.000010    -1.091268    -2.896398
	   52 D(2,1,11,14)    =     80.435793    -0.000023     9.455218    89.891011
	   53 D(2,1,11,15)    =   -157.722380    -0.000018     9.542663  -148.179717
	   54 D(2,1,11,16)    =    -40.157055    -0.000013     9.490733   -30.666322
	   55 D(3,14,11,15)   =    178.395313     0.000016    -1.260626   177.134687
	   56 D(3,14,11,16)   =     58.701351     0.000002    -1.262406    57.438946
	   57 D(4,14,11,15)   =    -61.033043     0.000006    -1.007487   -62.040530
	   58 D(4,14,11,16)   =    179.272995    -0.000008    -1.009266   178.263728
	   59 D(5,6,9,10)     =     85.243727     0.000003    -0.921140    84.322588
	   60 D(6,9,1,11)     =    126.607149     0.000006    -1.052865   125.554284
	   61 D(6,9,1,13)     =      8.124155    -0.000005    -0.972005     7.152150
	   62 D(7,6,9,10)     =    -35.012612     0.000001    -0.954952   -35.967564
	   63 D(8,6,9,10)     =   -155.966160     0.000004    -0.887765  -156.853924
	   64 D(9,1,11,14)    =   -176.052216    -0.000014     9.429723  -166.622493
	   65 D(9,1,11,15)    =    -54.210389    -0.000010     9.517168   -44.693221
	   66 D(9,1,11,16)    =     63.354936    -0.000005     9.465238    72.820174
	   67 D(10,9,1,11)    =   -124.043175     0.000017    -1.047393  -125.090567
	   68 D(10,9,1,13)    =    117.473831     0.000005    -0.966533   116.507298
	   69 D(12,14,11,15)  =     58.655826     0.000010    -1.098168    57.557659
	   70 D(12,14,11,16)  =    -61.038136    -0.000004    -1.099947   -62.138083
	   71 D(13,1,11,14)   =    -65.544795     0.000003     9.196790   -56.348005
	   72 D(13,1,11,15)   =     56.297032     0.000007     9.284235    65.581267
	   73 D(13,1,11,16)   =    173.862357     0.000012     9.232305   183.094662
	 ---------------------------------------------------------------------------
	Successfully symmetrized geometry.

  ==> Convergence Check <==

  Measures of convergence in internal coordinates in au.
  Criteria marked as inactive (o), active & met (*), and active & unmet ( ).
  ---------------------------------------------------------------------------------------------
   Step     Total Energy     Delta E     MAX Force     RMS Force      MAX Disp      RMS Disp   
  ---------------------------------------------------------------------------------------------
    Convergence Criteria    1.00e-06 *    3.00e-04 *             o    1.20e-03 *             o
  ---------------------------------------------------------------------------------------------
      2    -308.76423510   -2.86e-03      2.91e-03      8.67e-04 o    1.67e-01      5.85e-02 o  ~
  ---------------------------------------------------------------------------------------------

	Writing optimization data to binary file.
	Structure for next step:
	Cartesian Geometry (in Angstrom)
	    C    -0.0848200749  -0.2789606560  -0.1985463352
	    O    -1.1570810709  -0.2593843488  -0.9564764021
	    H    -0.8622632087  -2.6666615447   0.9330313720
	    H     0.8973337425  -2.4920663811   1.1121680189
	    H     1.1224572312   2.8525773139  -1.3199843765
	    C     1.2717281344   1.8083602257  -1.0420200144
	    H     1.4114767278   1.2002031520  -1.9423868971
	    H     2.1498599873   1.7278692990  -0.3991071365
	    O     0.1242568299   1.3711353736  -0.3185298575
	    H    -0.7645451673   1.0120169774  -0.9526733580
	    C    -0.2136975769  -0.6101697324   1.2649002283
	    H    -0.1547422113  -2.3676910959   2.5281365989
	    H     0.8617624717  -0.6415803172  -0.6407548063
	    C    -0.0739668195  -2.1244367744   1.4676624299
	    H     0.5510873347  -0.0706480094   1.8464813401
	    H    -1.1991825096  -0.2626927921   1.5957739439
			--------------------------
			 OPTKING Finished Execution 
			--------------------------

    Structure for next step:
    Molecular point group: c1
    Full point group: C1

    Geometry (in Angstrom), charge = 0, multiplicity = 1:

    C           -0.066119071856    -0.296700965959    -0.201795284081
    O           -1.138380067880    -0.277124658839    -0.959725350965
    H           -0.843562205679    -2.684401854658     0.929782423091
    H            0.916034745556    -2.509806691059     1.108919069979
    H            1.141158234247     2.834837003853    -1.323233325354
    C            1.290429137465     1.790619915715    -1.045268963332
    H            1.430177730855     1.182462842048    -1.945635846012
    H            2.168560990287     1.710128988997    -0.402356085428
    O            0.142957832978     1.353395063615    -0.321778806350
    H           -0.745844164294     0.994276667407    -0.955922306885
    C           -0.194996573896    -0.627910042434     1.261651279368
    H           -0.136041208270    -2.385431405904     2.524887650009
    H            0.880463474780    -0.659320627173    -0.644003755143
    C           -0.055265816427    -2.142177084394     1.464413480988
    H            0.569788337759    -0.088388319403     1.843232391229
    H           -1.180481506597    -0.280433102130     1.592524995038

gradient() will perform analytic gradient computation.

*** tstart() called on localhost.localdomain
*** at Fri Mar  8 15:11:50 2019

   => Loading Basis Set <=

    Name: 6-311++G(D,P)
    Role: ORBITAL
    Keyword: BASIS
    atoms 1, 6, 11, 14               entry C          line   119 file /root/psi4conda/share/psi4/basis/6-311ppg_d_p_.gbs 
    atoms 2, 9                       entry O          line   161 file /root/psi4conda/share/psi4/basis/6-311ppg_d_p_.gbs 
    atoms 3-5, 7-8, 10, 12-13, 15-16 entry H          line    42 file /root/psi4conda/share/psi4/basis/6-311ppg_d_p_.gbs 


         ---------------------------------------------------------
                                   SCF
            by Justin Turney, Rob Parrish, Andy Simmonett
                             and Daniel Smith
                              RKS Reference
                       32 Threads,    500 MiB Core
         ---------------------------------------------------------

  ==> Geometry <==

    Molecular point group: c1
    Full point group: C1

    Geometry (in Angstrom), charge = 0, multiplicity = 1:

       Center              X                  Y                   Z               Mass       
    ------------   -----------------  -----------------  -----------------  -----------------
         C           -0.066119071856    -0.296700965959    -0.201795284081    12.000000000000
         O           -1.138380067880    -0.277124658839    -0.959725350965    15.994914619560
         H           -0.843562205679    -2.684401854658     0.929782423091     1.007825032070
         H            0.916034745556    -2.509806691059     1.108919069979     1.007825032070
         H            1.141158234247     2.834837003853    -1.323233325354     1.007825032070
         C            1.290429137465     1.790619915715    -1.045268963332    12.000000000000
         H            1.430177730855     1.182462842048    -1.945635846012     1.007825032070
         H            2.168560990287     1.710128988997    -0.402356085428     1.007825032070
         O            0.142957832978     1.353395063615    -0.321778806350    15.994914619560
         H           -0.745844164294     0.994276667407    -0.955922306885     1.007825032070
         C           -0.194996573896    -0.627910042434     1.261651279368    12.000000000000
         H           -0.136041208270    -2.385431405904     2.524887650009     1.007825032070
         H            0.880463474780    -0.659320627173    -0.644003755143     1.007825032070
         C           -0.055265816427    -2.142177084394     1.464413480988    12.000000000000
         H            0.569788337759    -0.088388319403     1.843232391229     1.007825032070
         H           -1.180481506597    -0.280433102130     1.592524995038     1.007825032070

  Running in c1 symmetry.

  Rotational constants: A =      0.21976  B =      0.06584  C =      0.05711 [cm^-1]
  Rotational constants: A =   6588.24229  B =   1973.93514  C =   1712.17601 [MHz]
  Nuclear repulsion =  260.104230957617801

  Charge       = 0
  Multiplicity = 1
  Electrons    = 50
  Nalpha       = 25
  Nbeta        = 25

  ==> Algorithm <==

  SCF Algorithm Type is DF.
  DIIS enabled.
  MOM disabled.
  Fractional occupation disabled.
  Guess Type is READ.
  Energy threshold   = 1.00e-08
  Density threshold  = 1.00e-08
[...]
	system time =     237.66 seconds =       3.96 minutes
	total time  =        264 seconds =       4.40 minutes

			-----------------------------------------
			 OPTKING 2.0: for geometry optimizations 
			  - R.A. King,  Bethel University        
			-----------------------------------------

	Previous internal coordinate definitions found.
	---Fragment 1 Geometry and Gradient---
	 C           0.1049601808       -0.5743600859       -0.3604949865
	 O          -1.9603740354       -0.8759343943       -1.6851162287
	 H          -1.7749161056       -4.7613846028        1.8563996597
	 H           1.5599747449       -4.9638523327        1.9729234863
	 H           1.3217056289        5.6241372749       -2.5950148584
	 C           1.9066617801        3.6974001755       -2.1672955596
	 H           2.1427866470        2.6296450414       -3.9224841370
	 H           3.6834542779        3.7401982020       -1.1266574276
	 O           0.0205371764        2.5617709887       -0.6181229701
	 H          -1.6348275392        1.6415184754       -1.6570143214
	 C           0.0596169396       -1.1582881096        2.4262273110
	 H          -0.1730356251       -4.5043308589        4.7876101791
	 H           1.9207656339       -1.0361069395       -1.2823019763
	 C          -0.0896098482       -4.0226219493        2.7853657994
	 H           1.7480384221       -0.3838036495        3.3310008599
	 H          -1.6022450684       -0.2387655668        3.2340386864
	            -0.0000227313       -0.0002123033        0.0000319935
	             0.0000973670       -0.0000182633        0.0000345489
	             0.0000193201       -0.0000133697        0.0000047152
	             0.0000217344        0.0000069071        0.0000107995
	            -0.0000319076        0.0000009563       -0.0000104034
	            -0.0000144681       -0.0000098558        0.0000119031
	            -0.0000093061        0.0000027403       -0.0000027466
	            -0.0000166005        0.0000158697       -0.0000025777
	            -0.0000572467        0.0000900677       -0.0000589428
	            -0.0000323206        0.0000953836       -0.0000208323
	             0.0000201324        0.0000343596        0.0000101800
	             0.0000144544        0.0000070730        0.0000116546
	            -0.0000005132       -0.0000023396       -0.0000010309
	             0.0000093458       -0.0000044083        0.0000091791
	            -0.0000208023        0.0000272786        0.0000070638
	            -0.0000326838       -0.0000216147       -0.0000218596

	---Fragment 1 Intrafragment Coordinates---
	 - Coordinate -           - BOHR/RAD -       - ANG/DEG -
	 H(2,10)          =         2.538570	       1.343354
	 R(1,2)           =         2.472079	       1.308168
	 R(1,9)           =         3.147827	       1.665759
	 R(1,11)          =         2.847604	       1.506887
	 R(1,13)          =         2.088082	       1.104966
	 R(3,14)          =         2.061312	       1.090799
	 R(4,14)          =         2.065698	       1.093120
	 R(5,6)           =         2.058503	       1.089313
	 R(6,7)           =         2.067980	       1.094328
	 R(6,8)           =         2.059551	       1.089868
	 R(6,9)           =         2.692036	       1.424564
	 R(9,10)          =         2.160183	       1.143120
	 R(11,14)         =         2.890615	       1.529648
	 R(11,15)         =         2.066206	       1.093389
	 R(11,16)         =         2.063944	       1.092192
	 R(12,14)         =         2.061064	       1.090668
	 B(1,9,6)         =         2.035981	     116.653103
	 B(1,9,10)        =         1.197688	      68.622495
	 B(1,11,14)       =         1.902446	     109.002150
	 B(1,11,15)       =         1.916282	     109.794887
	 B(1,11,16)       =         1.880197	     107.727353
	 B(2,1,9)         =         1.626102	      93.168810
	 B(2,1,11)        =         2.078370	     119.081801
	 B(2,1,13)        =         2.052170	     117.580704
	 B(3,14,4)        =         1.888456	     108.200587
	 B(3,14,11)       =         1.919151	     109.959229
	 B(3,14,12)       =         1.897528	     108.720330
	 B(4,14,11)       =         1.940581	     111.187100
	 B(4,14,12)       =         1.883789	     107.933169
	 B(5,6,7)         =         1.917043	     109.838485
	 B(5,6,8)         =         1.907830	     109.310598
	 B(5,6,9)         =         1.891591	     108.380179
	 B(6,9,10)        =         2.026230	     116.094445
	 B(7,6,8)         =         1.918855	     109.942277
	 B(7,6,9)         =         1.929020	     110.524677
	 B(8,6,9)         =         1.899101	     108.810498
	 B(9,1,11)        =         1.858722	     106.496915
	 B(9,1,13)        =         1.779820	     101.976150
	 B(11,1,13)       =         1.982885	     113.610932
	 B(11,14,12)      =         1.933048	     110.755473
	 B(14,11,15)      =         1.938214	     111.051485
	 B(14,11,16)      =         1.929725	     110.565094
	 B(15,11,16)      =         1.896088	     108.637828
	 D(1,9,6,5)       =         2.864057	     164.098382
	 D(1,9,6,7)       =         0.762433	      43.684193
	 D(1,9,6,8)       =        -1.346183	     -77.130628
	 D(1,11,14,3)     =        -1.019282	     -58.400580
	 D(1,11,14,4)     =         1.071840	      61.411895
	 D(1,11,14,12)    =        -3.116899	    -178.585145
	 D(2,1,9,6)       =        -1.918021	    -109.894492
	 D(2,1,9,10)      =        -0.008763	      -0.502068
	 D(2,1,11,14)     =         1.256178	      71.973711
	 D(2,1,11,15)     =        -2.900304	    -166.175191
	 D(2,1,11,16)     =        -0.838356	     -48.034266
	 D(3,14,11,15)    =        -3.132642	    -179.487176
	 D(3,14,11,16)    =         1.044384	      59.838805
	 D(4,14,11,15)    =        -1.041520	     -59.674702
	 D(4,14,11,16)    =         3.135506	     179.651279
	 D(5,6,9,10)      =         1.503109	      86.121788
	 D(6,9,1,11)      =         2.242713	     128.497996
	 D(6,9,1,13)      =         0.160017	       9.168293
	 D(7,6,9,10)      =        -0.598515	     -34.292401
	 D(8,6,9,10)      =        -2.707132	    -155.107222
	 D(9,1,11,14)     =         3.059754	     175.310969
	 D(9,1,11,15)     =        -1.096729	     -62.837933
	 D(9,1,11,16)     =         0.965219	      55.302991
	 D(10,9,1,11)     =        -2.131214	    -122.109580
	 D(10,9,1,13)     =         2.069275	     118.560717
	 D(12,14,11,15)   =         1.052927	      60.328259
	 D(12,14,11,16)   =        -1.053232	     -60.345760
	 D(13,1,11,14)    =        -1.278316	     -73.242101
	 D(13,1,11,15)    =         0.848387	      48.608997
	 D(13,1,11,16)    =         2.910335	     166.749922

	Current energy   :      -308.7646872094

	Energy change for the previous step:
		Projected    :        -0.0000001624
		Actual       :         0.0000003062

	Performing Bofill update.
	Previous computed or guess Hessian on step 1.
	Steps to be used in Hessian update: 14 13
	Taking PRFO optimization step.
	Maximizing along 1 lowest eigenvalue of Hessian.

 RFO min eigenvalues
 -0.000000 -0.000000 -0.000000 -0.000000 -0.000000 -0.000000 -0.000000 -0.000000
 -0.000000 -0.000000 -0.000000 -0.000000 -0.000000 -0.000000 -0.000000  0.000000
  0.000000  0.000000  0.000000  0.000000  0.000000  0.000000  0.000000  0.000000
  0.000000  0.000000  0.000000  0.000000  0.000000  0.000000  0.000000  0.000000
  0.001622  0.001762  0.011896  0.031562  0.039080  0.043861  0.046848  0.051991
  0.054152  0.055020  0.071274  0.073835  0.082754  0.089824  0.110760  0.121247
  0.128273  0.159179  0.159897  0.160067  0.160282  0.160957  0.161270  0.178939
  0.214499  0.217978  0.240556  0.281805  0.300114  0.302305  0.333568  0.339341
  0.341065  0.342232  0.342645  0.342923  0.342998  0.348150  0.349050  0.419204
  0.656265

 RFO max eigenvalues
 -0.014824  0.000000
	|RFO target step|  :        0.0090498445
	RFO gradient       :       -0.0000229145
	RFO hessian        :        0.0025317178
	Projected Delta(E) :       -0.0000001037

	Back-transformation to cartesian coordinates...
	Successfully converged to displaced geometry.

	--- Internal Coordinate Step in ANG or DEG, aJ/ANG or AJ/DEG ---
	 ---------------------------------------------------------------------------
	   Coordinate                Previous        Force       Change         New 
	   ----------                --------       ------       ------       ------
	    1 H(2,10)         =      1.343354    -0.000586     0.000356     1.343710
	    2 R(1,2)          =      1.308168     0.000931    -0.000079     1.308088
	    3 R(1,9)          =      1.665759    -0.001126     0.000084     1.665843
	    4 R(1,11)         =      1.506887     0.000109     0.000046     1.506933
	    5 R(1,13)         =      1.104966     0.000014     0.000005     1.104970
	    6 R(3,14)         =      1.090799    -0.000017    -0.000003     1.090796
	    7 R(4,14)         =      1.093120    -0.000041    -0.000014     1.093106
	    8 R(5,6)          =      1.089313    -0.000026    -0.000003     1.089310
	    9 R(6,7)          =      1.094328    -0.000003    -0.000001     1.094327
	   10 R(6,8)          =      1.089868    -0.000027    -0.000014     1.089854
	   11 R(6,9)          =      1.424564     0.000029     0.000011     1.424575
	   12 R(9,10)         =      1.143120    -0.000096    -0.000557     1.142563
	   13 R(11,14)        =      1.529648    -0.000119    -0.000031     1.529617
	   14 R(11,15)        =      1.093389     0.000012     0.000006     1.093395
	   15 R(11,16)        =      1.092192    -0.000016    -0.000003     1.092189
	   16 R(12,14)        =      1.090668    -0.000013    -0.000001     1.090667
	   17 B(1,9,6)        =    116.653103     0.000003     0.011697   116.664800
	   18 B(1,9,10)       =     68.622495    -0.000004    -0.017746    68.604749
	   19 B(1,11,14)      =    109.002150     0.000001     0.003701   109.005851
	   20 B(1,11,15)      =    109.794887    -0.000000    -0.002410   109.792476
	   21 B(1,11,16)      =    107.727353     0.000000     0.006918   107.734271
	   22 B(2,1,9)        =     93.168810     0.000004     0.013465    93.182275
	   23 B(2,1,11)       =    119.081801    -0.000002    -0.002123   119.079678
	   24 B(2,1,13)       =    117.580704     0.000001     0.006596   117.587300
	   25 B(3,14,4)       =    108.200587     0.000000     0.004089   108.204675
	   26 B(3,14,11)      =    109.959229    -0.000000    -0.003660   109.955568
	   27 B(3,14,12)      =    108.720330    -0.000000    -0.000919   108.719410
	   28 B(4,14,11)      =    111.187100    -0.000000    -0.000447   111.186654
	   29 B(4,14,12)      =    107.933169     0.000000     0.001338   107.934507
	   30 B(5,6,7)        =    109.838485     0.000000     0.000893   109.839378
	   31 B(5,6,8)        =    109.310598     0.000000     0.001320   109.311918
	   32 B(5,6,9)        =    108.380179     0.000000     0.004087   108.384266
	   33 B(6,9,10)       =    116.094445     0.000002    -0.019641   116.074804
	   34 B(7,6,8)        =    109.942277     0.000000     0.001541   109.943818
	   35 B(7,6,9)        =    110.524677     0.000000     0.001100   110.525777
	   36 B(8,6,9)        =    108.810498    -0.000001    -0.008988   108.801510
	   37 B(9,1,11)       =    106.496915    -0.000002    -0.014155   106.482760
	   38 B(9,1,13)       =    101.976150     0.000000    -0.008375   101.967775
	   39 B(11,1,13)      =    113.610932     0.000000     0.001127   113.612060
	   40 B(11,14,12)     =    110.755473     0.000000    -0.000224   110.755249
	   41 B(14,11,15)     =    111.051485    -0.000000    -0.003329   111.048157
	   42 B(14,11,16)     =    110.565094     0.000000     0.003003   110.568098
	   43 B(15,11,16)     =    108.637828    -0.000000    -0.007622   108.630206
	   44 D(1,9,6,5)      =    164.098382    -0.000000    -0.117625   163.980757
	   45 D(1,9,6,7)      =     43.684193    -0.000000    -0.121958    43.562235
	   46 D(1,9,6,8)      =    -77.130628    -0.000000    -0.118798   -77.249427
	   47 D(1,11,14,3)    =    -58.400580    -0.000000     0.118991   -58.281589
	   48 D(1,11,14,4)    =     61.411895     0.000000     0.121416    61.533311
	   49 D(1,11,14,12)   =   -178.585145     0.000000     0.122658  -178.462487
	   50 D(2,1,9,6)      =   -109.894492    -0.000000     0.025606  -109.868886
	   51 D(2,1,9,10)     =     -0.502068    -0.000000    -0.006656    -0.508724
	   52 D(2,1,11,14)    =     71.973711    -0.000000    -0.065106    71.908606
	   53 D(2,1,11,15)    =   -166.175191    -0.000000    -0.068373  -166.243564
	   54 D(2,1,11,16)    =    -48.034266    -0.000001    -0.074843   -48.109109
	   55 D(3,14,11,15)   =   -179.487176    -0.000000     0.121671  -179.365505
	   56 D(3,14,11,16)   =     59.838805     0.000000     0.131481    59.970285
	   57 D(4,14,11,15)   =    -59.674702     0.000000     0.124097   -59.550605
	   58 D(4,14,11,16)   =    179.651279     0.000000     0.133906   179.785185
	   59 D(5,6,9,10)     =     86.121788     0.000000    -0.093147    86.028641
	   60 D(6,9,1,11)     =    128.497996     0.000000     0.026242   128.524238
	   61 D(6,9,1,13)     =      9.168293     0.000000     0.034617     9.202910
	   62 D(7,6,9,10)     =    -34.292401     0.000000    -0.097480   -34.389881
	   63 D(8,6,9,10)     =   -155.107222     0.000000    -0.094320  -155.201542
	   64 D(9,1,11,14)    =    175.310969     0.000000    -0.058627   175.252342
	   65 D(9,1,11,15)    =    -62.837933     0.000000    -0.061894   -62.899828
	   66 D(9,1,11,16)    =     55.302991     0.000000    -0.068364    55.234627
	   67 D(10,9,1,11)    =   -122.109580    -0.000000    -0.006020  -122.115600
	   68 D(10,9,1,13)    =    118.560717     0.000000     0.002355   118.563072
	   69 D(12,14,11,15)  =     60.328259     0.000000     0.125338    60.453598
	   70 D(12,14,11,16)  =    -60.345760     0.000000     0.135148   -60.210612
	   71 D(13,1,11,14)   =    -73.242101    -0.000000    -0.076386   -73.318486
	   72 D(13,1,11,15)   =     48.608997    -0.000000    -0.079653    48.529344
	   73 D(13,1,11,16)   =    166.749922    -0.000000    -0.086123   166.663799
	 ---------------------------------------------------------------------------
	Successfully symmetrized geometry.

  ==> Convergence Check <==

  Measures of convergence in internal coordinates in au.
  Criteria marked as inactive (o), active & met (*), and active & unmet ( ).
  ---------------------------------------------------------------------------------------------
   Step     Total Energy     Delta E     MAX Force     RMS Force      MAX Disp      RMS Disp   
  ---------------------------------------------------------------------------------------------
    Convergence Criteria    1.00e-06 *    3.00e-04 *             o    1.20e-03 *             o
  ---------------------------------------------------------------------------------------------
     15    -308.76468721    3.06e-07 *    1.37e-04 *    2.70e-05 o    2.36e-03      1.06e-03 o  ~
  ---------------------------------------------------------------------------------------------


  **** Optimization is complete! (in 15 steps) ****

  ==> Optimization Summary <==

  Measures of convergence in internal coordinates in au.
  --------------------------------------------------------------------------------------------------------------- ~
   Step         Total Energy             Delta E       MAX Force       RMS Force        MAX Disp        RMS Disp  ~
  --------------------------------------------------------------------------------------------------------------- ~
      1    -308.761376855611   -308.761376855611      0.01135080      0.00328230      0.13933479      0.03885280  ~
      2    -308.764235104633     -0.002858249021      0.00291328      0.00086687      0.16655089      0.05848454  ~
      3    -308.763191697405      0.001043407228      0.00573692      0.00130517      0.14915015      0.05067240  ~
      4    -308.764074532901     -0.000882835496      0.00498652      0.00130228      0.04536088      0.01579680  ~
      5    -308.764326537159     -0.000252004258      0.00378919      0.00086354      0.15348032      0.05852799  ~
      6    -308.764613447518     -0.000286910359      0.00299807      0.00075329      0.10336523      0.03343903  ~
      7    -308.764516143445      0.000097304073      0.00330965      0.00079157      0.03508602      0.01359334  ~
      8    -308.764624891750     -0.000108748305      0.00313325      0.00056192      0.14966845      0.05851650  ~
      9    -308.764447498608      0.000177393142      0.01334569      0.00246700      0.09959826      0.04614595  ~
     10    -308.764697227856     -0.000249729247      0.00276649      0.00050856      0.03859972      0.01326615  ~
     11    -308.764702684662     -0.000005456806      0.00215502      0.00042205      0.03049944      0.01409736  ~
     12    -308.764687573546      0.000015111116      0.00033410      0.00008661      0.01198455      0.00523385  ~
     13    -308.764685747163      0.000001826383      0.00057817      0.00012125      0.00924717      0.00394908  ~
     14    -308.764687515626     -0.000001768463      0.00017999      0.00003487      0.00263030      0.00111705  ~
     15    -308.764687209444      0.000000306182      0.00013670      0.00002702      0.00235877      0.00105921  ~
  --------------------------------------------------------------------------------------------------------------- ~

	Writing optimization data to binary file.
	Final energy is   -308.7646872094438
	Final (previous) structure:
	Cartesian Geometry (in Angstrom)
	    C     0.0555425355  -0.3039382670  -0.1907657307
	    O    -1.0373852599  -0.4635245177  -0.8917251020
	    H    -0.9392451502  -2.5196162132   0.9823643899
	    H     0.8255030810  -2.6267575213   1.0440261432
	    H     0.6994164953   2.9761652638  -1.3732227190
	    C     1.0089619585   1.9565799039  -1.1468834144
	    H     1.1339138565   1.3915482226  -2.0756892063
	    H     1.9492000527   1.9792276441  -0.5962014326
	    O     0.0108678057   1.3556308208  -0.3270965879
	    H    -0.8651134737   0.8686541647  -0.8768542132
	    C     0.0315479257  -0.6129396686   1.2839041958
	    H    -0.0915665091  -2.3835892305   2.5334941904
	    H     1.0164253965  -0.5482841780  -0.6785649804
	    C    -0.0474194893  -2.1286798544   1.4739520986
	    H     0.9250220927  -0.2031001439   1.7626897368
	    H    -0.8478715728  -0.1263492962   1.7113795645
	Saving final (previous) structure.
	Removing binary optimization data file.
			--------------------------
			 OPTKING Finished Execution 
			--------------------------

    Final optimized geometry and variables:
    Molecular point group: c1
    Full point group: C1

    Geometry (in Angstrom), charge = 0, multiplicity = 1:

    C            0.055542535503    -0.303938266973    -0.190765730666
    O           -1.037385259856    -0.463524517665    -0.891725102032
    H           -0.939245150220    -2.519616213151     0.982364389928
    H            0.825503080982    -2.626757521264     1.044026143246
    H            0.699416495259     2.976165263834    -1.373222718994
    C            1.008961958530     1.956579903918    -1.146883414419
    H            1.133913856481     1.391548222579    -2.075689206332
    H            1.949200052733     1.979227644088    -0.596201432594
    O            0.010867805668     1.355630820841    -0.327096587898
    H           -0.865113473736     0.868654164682    -0.876854213181
    C            0.031547925705    -0.612939668607     1.283904195818
    H           -0.091566509057    -2.383589230479     2.533494190388
    H            1.016425396521    -0.548284178046    -0.678564980399
    C           -0.047419489333    -2.128679854358     1.473952098635
    H            0.925022092710    -0.203100143894     1.762689736844
    H           -0.847871572757    -0.126349296173     1.711379564523

	Removing binary optimization data file.
	Cleaning optimization helper files.

    Psi4 stopped on: Friday, 08 March 2019 03:15PM
    Psi4 wall time for execution: 0:04:24.39

*** Psi4 exiting successfully. Buy a developer a beer!
