
Host: DESKTOP-1OTU84N

Timers On : Mon Nov 18 12:52:29 2019
Timers Off: Mon Nov 18 12:52:42 2019

Wall Time:       12.46 seconds

                                                       Time (seconds)
Module                                       User      System        Wall        Calls

--------------------------------------------------------------------------------------

**************************************************************************************

Host: DESKTOP-1OTU84N

Timers On : Mon Nov 18 13:11:54 2019
Timers Off: Mon Nov 18 13:11:55 2019

Wall Time:        0.75 seconds

                                                       Time (seconds)
Module                                       User      System        Wall        Calls

--------------------------------------------------------------------------------------

**************************************************************************************

Host: DESKTOP-1OTU84N

Timers On : Mon Nov 18 13:12:35 2019
Timers Off: Mon Nov 18 13:12:35 2019

Wall Time:        0.80 seconds

                                                       Time (seconds)
Module                                       User      System        Wall        Calls

--------------------------------------------------------------------------------------

**************************************************************************************

Host: DESKTOP-1OTU84N

Timers On : Mon Nov 18 13:21:12 2019
Timers Off: Mon Nov 18 13:21:13 2019

Wall Time:        0.64 seconds

                                                       Time (seconds)
Module                                       User      System        Wall        Calls

--------------------------------------------------------------------------------------

**************************************************************************************

Host: DESKTOP-1OTU84N

Timers On : Mon Nov 18 13:27:33 2019
Timers Off: Mon Nov 18 13:27:34 2019

Wall Time:        0.77 seconds

                                                       Time (seconds)
Module                                       User      System        Wall        Calls

--------------------------------------------------------------------------------------

**************************************************************************************

Host: DESKTOP-1OTU84N

Timers On : Mon Nov 18 13:42:12 2019
Timers Off: Mon Nov 18 13:42:13 2019

Wall Time:        0.57 seconds

                                                       Time (seconds)
Module                                       User      System        Wall        Calls

--------------------------------------------------------------------------------------

**************************************************************************************

Host: DESKTOP-1OTU84N

Timers On : Mon Nov 18 13:48:36 2019
Timers Off: Mon Nov 18 13:48:37 2019

Wall Time:        0.57 seconds

                                                       Time (seconds)
Module                                       User      System        Wall        Calls

--------------------------------------------------------------------------------------

**************************************************************************************

Host: DESKTOP-1OTU84N

Timers On : Mon Nov 18 13:50:08 2019
Timers Off: Mon Nov 18 13:50:09 2019

Wall Time:        0.72 seconds

                                                       Time (seconds)
Module                                       User      System        Wall        Calls

--------------------------------------------------------------------------------------

**************************************************************************************

Host: DESKTOP-1OTU84N

Timers On : Mon Nov 18 13:50:40 2019
Timers Off: Mon Nov 18 13:50:41 2019

Wall Time:        0.58 seconds

                                                       Time (seconds)
Module                                       User      System        Wall        Calls

--------------------------------------------------------------------------------------

**************************************************************************************

Host: DESKTOP-1OTU84N

Timers On : Mon Nov 18 13:51:38 2019
Timers Off: Mon Nov 18 13:51:38 2019

Wall Time:        0.73 seconds

                                                       Time (seconds)
Module                                       User      System        Wall        Calls

--------------------------------------------------------------------------------------

**************************************************************************************

Host: DESKTOP-1OTU84N

Timers On : Mon Nov 18 13:52:04 2019
Timers Off: Mon Nov 18 13:52:04 2019

Wall Time:        0.73 seconds

                                                       Time (seconds)
Module                                       User      System        Wall        Calls

--------------------------------------------------------------------------------------

**************************************************************************************

Host: DESKTOP-1OTU84N

Timers On : Mon Nov 18 13:57:55 2019
Timers Off: Mon Nov 18 13:57:56 2019

Wall Time:        0.73 seconds

                                                       Time (seconds)
Module                                       User      System        Wall        Calls

--------------------------------------------------------------------------------------

**************************************************************************************

Host: DESKTOP-1OTU84N

Timers On : Mon Nov 18 13:58:51 2019
Timers Off: Mon Nov 18 13:58:52 2019

Wall Time:        0.73 seconds

                                                       Time (seconds)
Module                                       User      System        Wall        Calls

--------------------------------------------------------------------------------------

**************************************************************************************

Host: DESKTOP-1OTU84N

Timers On : Mon Nov 18 13:59:25 2019
Timers Off: Mon Nov 18 13:59:26 2019

Wall Time:        0.74 seconds

                                                       Time (seconds)
Module                                       User      System        Wall        Calls

--------------------------------------------------------------------------------------

**************************************************************************************

Host: DESKTOP-1OTU84N

Timers On : Mon Nov 18 13:59:56 2019
Timers Off: Mon Nov 18 13:59:56 2019

Wall Time:        0.59 seconds

                                                       Time (seconds)
Module                                       User      System        Wall        Calls

--------------------------------------------------------------------------------------

**************************************************************************************

Host: DESKTOP-1OTU84N

Timers On : Mon Nov 18 14:00:21 2019
Timers Off: Mon Nov 18 14:00:22 2019

Wall Time:        0.57 seconds

                                                       Time (seconds)
Module                                       User      System        Wall        Calls

--------------------------------------------------------------------------------------

**************************************************************************************

Host: DESKTOP-1OTU84N

Timers On : Mon Nov 18 14:00:40 2019
Timers Off: Mon Nov 18 14:00:41 2019

Wall Time:        0.71 seconds

                                                       Time (seconds)
Module                                       User      System        Wall        Calls

--------------------------------------------------------------------------------------

**************************************************************************************

Host: DESKTOP-1OTU84N

Timers On : Mon Nov 18 14:01:01 2019
Timers Off: Mon Nov 18 14:01:02 2019

Wall Time:        0.58 seconds

                                                       Time (seconds)
Module                                       User      System        Wall        Calls

--------------------------------------------------------------------------------------

**************************************************************************************

Host: DESKTOP-1OTU84N

Timers On : Mon Nov 18 14:05:27 2019
Timers Off: Mon Nov 18 14:05:28 2019

Wall Time:        0.61 seconds

                                                       Time (seconds)
Module                                       User      System        Wall        Calls

--------------------------------------------------------------------------------------

**************************************************************************************

Host: DESKTOP-1OTU84N

Timers On : Mon Nov 18 14:06:28 2019
Timers Off: Mon Nov 18 14:06:29 2019

Wall Time:        0.58 seconds

                                                       Time (seconds)
Module                                       User      System        Wall        Calls

--------------------------------------------------------------------------------------

**************************************************************************************

Host: DESKTOP-1OTU84N

Timers On : Mon Nov 18 14:06:41 2019
Timers Off: Mon Nov 18 14:06:41 2019

Wall Time:        0.73 seconds

                                                       Time (seconds)
Module                                       User      System        Wall        Calls

--------------------------------------------------------------------------------------

**************************************************************************************

Host: DESKTOP-1OTU84N

Timers On : Mon Nov 18 14:08:49 2019
Timers Off: Mon Nov 18 14:08:50 2019

Wall Time:        0.57 seconds

                                                       Time (seconds)
Module                                       User      System        Wall        Calls

--------------------------------------------------------------------------------------

**************************************************************************************

Host: DESKTOP-1OTU84N

Timers On : Mon Nov 18 14:10:36 2019
Timers Off: Mon Nov 18 14:10:36 2019

Wall Time:        0.73 seconds

                                                       Time (seconds)
Module                                       User      System        Wall        Calls

--------------------------------------------------------------------------------------

**************************************************************************************

Host: DESKTOP-1OTU84N

Timers On : Mon Nov 18 15:28:33 2019
Timers Off: Mon Nov 18 15:28:33 2019

Wall Time:        0.60 seconds

                                                       Time (seconds)
Module                                       User      System        Wall        Calls

--------------------------------------------------------------------------------------

**************************************************************************************

Host: DESKTOP-1OTU84N

Timers On : Mon Nov 18 15:28:45 2019
Timers Off: Mon Nov 18 15:28:45 2019

Wall Time:        0.72 seconds

                                                       Time (seconds)
Module                                       User      System        Wall        Calls

--------------------------------------------------------------------------------------

**************************************************************************************

Host: DESKTOP-1OTU84N

Timers On : Mon Nov 18 15:29:08 2019
Timers Off: Mon Nov 18 15:29:08 2019

Wall Time:        0.70 seconds

                                                       Time (seconds)
Module                                       User      System        Wall        Calls

--------------------------------------------------------------------------------------

**************************************************************************************

Host: DESKTOP-1OTU84N

Timers On : Mon Nov 18 16:28:20 2019
Timers Off: Mon Nov 18 16:28:20 2019

Wall Time:        0.69 seconds

                                                       Time (seconds)
Module                                       User      System        Wall        Calls

--------------------------------------------------------------------------------------

**************************************************************************************

Host: DESKTOP-1OTU84N

Timers On : Mon Nov 18 16:30:24 2019
Timers Off: Mon Nov 18 16:30:24 2019

Wall Time:        0.74 seconds

                                                       Time (seconds)
Module                                       User      System        Wall        Calls

--------------------------------------------------------------------------------------

**************************************************************************************

Host: DESKTOP-1OTU84N

Timers On : Tue Nov 19 08:50:17 2019
Timers Off: Tue Nov 19 08:50:30 2019

Wall Time:       13.29 seconds

                                                       Time (seconds)
Module                                       User      System        Wall        Calls

--------------------------------------------------------------------------------------

**************************************************************************************

Host: DESKTOP-1OTU84N

Timers On : Tue Nov 19 08:52:22 2019
Timers Off: Tue Nov 19 08:52:24 2019

Wall Time:        2.02 seconds

                                                       Time (seconds)
Module                                       User      System        Wall        Calls

--------------------------------------------------------------------------------------

**************************************************************************************

Host: DESKTOP-1OTU84N

Timers On : Tue Nov 19 08:53:11 2019
Timers Off: Tue Nov 19 08:53:13 2019

Wall Time:        2.19 seconds

                                                       Time (seconds)
Module                                       User      System        Wall        Calls

--------------------------------------------------------------------------------------

**************************************************************************************

Host: DESKTOP-1OTU84N

Timers On : Tue Nov 19 08:54:07 2019
Timers Off: Tue Nov 19 08:54:09 2019

Wall Time:        1.81 seconds

                                                       Time (seconds)
Module                                       User      System        Wall        Calls

--------------------------------------------------------------------------------------

**************************************************************************************

Host: DESKTOP-1OTU84N

Timers On : Tue Nov 19 08:54:43 2019
Timers Off: Tue Nov 19 08:54:45 2019

Wall Time:        1.50 seconds

                                                       Time (seconds)
Module                                       User      System        Wall        Calls

--------------------------------------------------------------------------------------

**************************************************************************************

Host: DESKTOP-1OTU84N

Timers On : Tue Nov 19 09:25:43 2019
Timers Off: Tue Nov 19 09:25:49 2019

Wall Time:        5.47 seconds

                                                       Time (seconds)
Module                                       User      System        Wall        Calls

--------------------------------------------------------------------------------------

**************************************************************************************

Host: DESKTOP-1OTU84N

Timers On : Tue Nov 19 09:26:24 2019
Timers Off: Tue Nov 19 09:26:25 2019

Wall Time:        1.54 seconds

                                                       Time (seconds)
Module                                       User      System        Wall        Calls

--------------------------------------------------------------------------------------

**************************************************************************************

Host: DESKTOP-1OTU84N

Timers On : Tue Nov 19 09:30:09 2019
Timers Off: Tue Nov 19 09:30:10 2019

Wall Time:        1.15 seconds

                                                       Time (seconds)
Module                                       User      System        Wall        Calls

--------------------------------------------------------------------------------------

**************************************************************************************

Host: DESKTOP-1OTU84N

Timers On : Tue Nov 19 09:51:10 2019
Timers Off: Tue Nov 19 09:51:11 2019

Wall Time:        1.28 seconds

                                                       Time (seconds)
Module                                       User      System        Wall        Calls

--------------------------------------------------------------------------------------

**************************************************************************************

Host: DESKTOP-1OTU84N

Timers On : Tue Nov 19 09:59:31 2019
Timers Off: Tue Nov 19 09:59:32 2019

Wall Time:        1.24 seconds

                                                       Time (seconds)
Module                                       User      System        Wall        Calls

--------------------------------------------------------------------------------------

**************************************************************************************

Host: DESKTOP-1OTU84N

Timers On : Tue Nov 19 10:00:36 2019
Timers Off: Tue Nov 19 10:00:37 2019

Wall Time:        1.55 seconds

                                                       Time (seconds)
Module                                       User      System        Wall        Calls

--------------------------------------------------------------------------------------

**************************************************************************************

Host: DESKTOP-1OTU84N

Timers On : Tue Nov 19 10:03:23 2019
Timers Off: Tue Nov 19 10:03:24 2019

Wall Time:        1.21 seconds

                                                       Time (seconds)
Module                                       User      System        Wall        Calls

--------------------------------------------------------------------------------------

**************************************************************************************

Host: DESKTOP-1OTU84N

Timers On : Tue Nov 19 10:06:29 2019
Timers Off: Tue Nov 19 10:06:30 2019

Wall Time:        0.84 seconds

                                                       Time (seconds)
Module                                       User      System        Wall        Calls

--------------------------------------------------------------------------------------

**************************************************************************************

Host: DESKTOP-1OTU84N

Timers On : Tue Nov 19 10:15:37 2019
Timers Off: Tue Nov 19 10:15:38 2019

Wall Time:        0.65 seconds

                                                       Time (seconds)
Module                                       User      System        Wall        Calls

--------------------------------------------------------------------------------------

**************************************************************************************

Host: DESKTOP-1OTU84N

Timers On : Tue Nov 19 10:24:22 2019
Timers Off: Tue Nov 19 10:24:24 2019

Wall Time:        1.22 seconds

                                                       Time (seconds)
Module                                       User      System        Wall        Calls

--------------------------------------------------------------------------------------

**************************************************************************************

Host: DESKTOP-1OTU84N

Timers On : Tue Nov 19 10:25:05 2019
Timers Off: Tue Nov 19 10:25:05 2019

Wall Time:        0.75 seconds

                                                       Time (seconds)
Module                                       User      System        Wall        Calls

--------------------------------------------------------------------------------------

**************************************************************************************

Host: DESKTOP-1OTU84N

Timers On : Tue Nov 19 10:29:59 2019
Timers Off: Tue Nov 19 10:30:01 2019

Wall Time:        1.55 seconds

                                                       Time (seconds)
Module                                       User      System        Wall        Calls

--------------------------------------------------------------------------------------

**************************************************************************************

Host: DESKTOP-1OTU84N

Timers On : Tue Nov 19 10:31:05 2019
Timers Off: Tue Nov 19 10:31:07 2019

Wall Time:        1.20 seconds

                                                       Time (seconds)
Module                                       User      System        Wall        Calls

--------------------------------------------------------------------------------------

**************************************************************************************

Host: DESKTOP-1OTU84N

Timers On : Tue Nov 19 10:33:31 2019
Timers Off: Tue Nov 19 10:33:32 2019

Wall Time:        0.99 seconds

                                                       Time (seconds)
Module                                       User      System        Wall        Calls

--------------------------------------------------------------------------------------

**************************************************************************************

Host: DESKTOP-1OTU84N

Timers On : Tue Nov 19 10:34:01 2019
Timers Off: Tue Nov 19 10:34:02 2019

Wall Time:        1.04 seconds

                                                       Time (seconds)
Module                                       User      System        Wall        Calls

--------------------------------------------------------------------------------------

**************************************************************************************

Host: DESKTOP-1OTU84N

Timers On : Tue Nov 19 10:35:34 2019
Timers Off: Tue Nov 19 10:35:37 2019

Wall Time:        2.19 seconds

                                                       Time (seconds)
Module                                       User      System        Wall        Calls

--------------------------------------------------------------------------------------

**************************************************************************************

Host: DESKTOP-1OTU84N

Timers On : Tue Nov 19 10:36:44 2019
Timers Off: Tue Nov 19 10:36:46 2019

Wall Time:        1.94 seconds

                                                       Time (seconds)
Module                                       User      System        Wall        Calls

--------------------------------------------------------------------------------------

**************************************************************************************

Host: DESKTOP-1OTU84N

Timers On : Tue Nov 19 10:37:17 2019
Timers Off: Tue Nov 19 10:37:18 2019

Wall Time:        0.89 seconds

                                                       Time (seconds)
Module                                       User      System        Wall        Calls

--------------------------------------------------------------------------------------

**************************************************************************************

Host: DESKTOP-1OTU84N

Timers On : Tue Nov 19 10:37:24 2019
Timers Off: Tue Nov 19 10:37:25 2019

Wall Time:        0.93 seconds

                                                       Time (seconds)
Module                                       User      System        Wall        Calls

--------------------------------------------------------------------------------------

**************************************************************************************

Host: DESKTOP-1OTU84N

Timers On : Tue Nov 19 10:38:04 2019
Timers Off: Tue Nov 19 10:38:05 2019

Wall Time:        1.10 seconds

                                                       Time (seconds)
Module                                       User      System        Wall        Calls

--------------------------------------------------------------------------------------

**************************************************************************************

Host: DESKTOP-1OTU84N

Timers On : Tue Nov 19 11:02:12 2019
Timers Off: Tue Nov 19 11:02:14 2019

Wall Time:        1.51 seconds

                                                       Time (seconds)
Module                                       User      System        Wall        Calls

--------------------------------------------------------------------------------------

**************************************************************************************

Host: DESKTOP-1OTU84N

Timers On : Tue Nov 19 11:44:13 2019
Timers Off: Tue Nov 19 11:44:15 2019

Wall Time:        1.47 seconds

                                                       Time (seconds)
Module                                       User      System        Wall        Calls

--------------------------------------------------------------------------------------

**************************************************************************************

Host: DESKTOP-1OTU84N

Timers On : Tue Nov 19 11:54:32 2019
Timers Off: Tue Nov 19 11:54:33 2019

Wall Time:        1.56 seconds

                                                       Time (seconds)
Module                                       User      System        Wall        Calls

--------------------------------------------------------------------------------------

**************************************************************************************
