
Host: DESKTOP-1OTU84N

Timers On : Mon Nov 18 12:52:29 2019
Timers Off: Mon Nov 18 12:52:42 2019

Wall Time:       12.46 seconds

                                                       Time (seconds)
Module                                       User      System        Wall        Calls

--------------------------------------------------------------------------------------

**************************************************************************************

Host: DESKTOP-1OTU84N

Timers On : Mon Nov 18 13:11:54 2019
Timers Off: Mon Nov 18 13:11:55 2019

Wall Time:        0.75 seconds

                                                       Time (seconds)
Module                                       User      System        Wall        Calls

--------------------------------------------------------------------------------------

**************************************************************************************

Host: DESKTOP-1OTU84N

Timers On : Mon Nov 18 13:12:35 2019
Timers Off: Mon Nov 18 13:12:35 2019

Wall Time:        0.80 seconds

                                                       Time (seconds)
Module                                       User      System        Wall        Calls

--------------------------------------------------------------------------------------

**************************************************************************************

Host: DESKTOP-1OTU84N

Timers On : Mon Nov 18 13:21:12 2019
Timers Off: Mon Nov 18 13:21:13 2019

Wall Time:        0.64 seconds

                                                       Time (seconds)
Module                                       User      System        Wall        Calls

--------------------------------------------------------------------------------------

**************************************************************************************

Host: DESKTOP-1OTU84N

Timers On : Mon Nov 18 13:27:33 2019
Timers Off: Mon Nov 18 13:27:34 2019

Wall Time:        0.77 seconds

                                                       Time (seconds)
Module                                       User      System        Wall        Calls

--------------------------------------------------------------------------------------

**************************************************************************************

Host: DESKTOP-1OTU84N

Timers On : Mon Nov 18 13:42:12 2019
Timers Off: Mon Nov 18 13:42:13 2019

Wall Time:        0.57 seconds

                                                       Time (seconds)
Module                                       User      System        Wall        Calls

--------------------------------------------------------------------------------------

**************************************************************************************

Host: DESKTOP-1OTU84N

Timers On : Mon Nov 18 13:48:36 2019
Timers Off: Mon Nov 18 13:48:37 2019

Wall Time:        0.57 seconds

                                                       Time (seconds)
Module                                       User      System        Wall        Calls

--------------------------------------------------------------------------------------

**************************************************************************************

Host: DESKTOP-1OTU84N

Timers On : Mon Nov 18 13:50:08 2019
Timers Off: Mon Nov 18 13:50:09 2019

Wall Time:        0.72 seconds

                                                       Time (seconds)
Module                                       User      System        Wall        Calls

--------------------------------------------------------------------------------------

**************************************************************************************

Host: DESKTOP-1OTU84N

Timers On : Mon Nov 18 13:50:40 2019
Timers Off: Mon Nov 18 13:50:41 2019

Wall Time:        0.58 seconds

                                                       Time (seconds)
Module                                       User      System        Wall        Calls

--------------------------------------------------------------------------------------

**************************************************************************************

Host: DESKTOP-1OTU84N

Timers On : Mon Nov 18 13:51:38 2019
Timers Off: Mon Nov 18 13:51:38 2019

Wall Time:        0.73 seconds

                                                       Time (seconds)
Module                                       User      System        Wall        Calls

--------------------------------------------------------------------------------------

**************************************************************************************

Host: DESKTOP-1OTU84N

Timers On : Mon Nov 18 13:52:04 2019
Timers Off: Mon Nov 18 13:52:04 2019

Wall Time:        0.73 seconds

                                                       Time (seconds)
Module                                       User      System        Wall        Calls

--------------------------------------------------------------------------------------

**************************************************************************************

Host: DESKTOP-1OTU84N

Timers On : Mon Nov 18 13:57:55 2019
Timers Off: Mon Nov 18 13:57:56 2019

Wall Time:        0.73 seconds

                                                       Time (seconds)
Module                                       User      System        Wall        Calls

--------------------------------------------------------------------------------------

**************************************************************************************

Host: DESKTOP-1OTU84N

Timers On : Mon Nov 18 13:58:51 2019
Timers Off: Mon Nov 18 13:58:52 2019

Wall Time:        0.73 seconds

                                                       Time (seconds)
Module                                       User      System        Wall        Calls

--------------------------------------------------------------------------------------

**************************************************************************************

Host: DESKTOP-1OTU84N

Timers On : Mon Nov 18 13:59:25 2019
Timers Off: Mon Nov 18 13:59:26 2019

Wall Time:        0.74 seconds

                                                       Time (seconds)
Module                                       User      System        Wall        Calls

--------------------------------------------------------------------------------------

**************************************************************************************

Host: DESKTOP-1OTU84N

Timers On : Mon Nov 18 13:59:56 2019
Timers Off: Mon Nov 18 13:59:56 2019

Wall Time:        0.59 seconds

                                                       Time (seconds)
Module                                       User      System        Wall        Calls

--------------------------------------------------------------------------------------

**************************************************************************************

Host: DESKTOP-1OTU84N

Timers On : Mon Nov 18 14:00:21 2019
Timers Off: Mon Nov 18 14:00:22 2019

Wall Time:        0.57 seconds

                                                       Time (seconds)
Module                                       User      System        Wall        Calls

--------------------------------------------------------------------------------------

**************************************************************************************

Host: DESKTOP-1OTU84N

Timers On : Mon Nov 18 14:00:40 2019
Timers Off: Mon Nov 18 14:00:41 2019

Wall Time:        0.71 seconds

                                                       Time (seconds)
Module                                       User      System        Wall        Calls

--------------------------------------------------------------------------------------

**************************************************************************************

Host: DESKTOP-1OTU84N

Timers On : Mon Nov 18 14:01:01 2019
Timers Off: Mon Nov 18 14:01:02 2019

Wall Time:        0.58 seconds

                                                       Time (seconds)
Module                                       User      System        Wall        Calls

--------------------------------------------------------------------------------------

**************************************************************************************

Host: DESKTOP-1OTU84N

Timers On : Mon Nov 18 14:05:27 2019
Timers Off: Mon Nov 18 14:05:28 2019

Wall Time:        0.61 seconds

                                                       Time (seconds)
Module                                       User      System        Wall        Calls

--------------------------------------------------------------------------------------

**************************************************************************************

Host: DESKTOP-1OTU84N

Timers On : Mon Nov 18 14:06:28 2019
Timers Off: Mon Nov 18 14:06:29 2019

Wall Time:        0.58 seconds

                                                       Time (seconds)
Module                                       User      System        Wall        Calls

--------------------------------------------------------------------------------------

**************************************************************************************

Host: DESKTOP-1OTU84N

Timers On : Mon Nov 18 14:06:41 2019
Timers Off: Mon Nov 18 14:06:41 2019

Wall Time:        0.73 seconds

                                                       Time (seconds)
Module                                       User      System        Wall        Calls

--------------------------------------------------------------------------------------

**************************************************************************************

Host: DESKTOP-1OTU84N

Timers On : Mon Nov 18 14:08:49 2019
Timers Off: Mon Nov 18 14:08:50 2019

Wall Time:        0.57 seconds

                                                       Time (seconds)
Module                                       User      System        Wall        Calls

--------------------------------------------------------------------------------------

**************************************************************************************

Host: DESKTOP-1OTU84N

Timers On : Mon Nov 18 14:10:36 2019
Timers Off: Mon Nov 18 14:10:36 2019

Wall Time:        0.73 seconds

                                                       Time (seconds)
Module                                       User      System        Wall        Calls

--------------------------------------------------------------------------------------

**************************************************************************************

Host: DESKTOP-1OTU84N

Timers On : Mon Nov 18 15:28:33 2019
Timers Off: Mon Nov 18 15:28:33 2019

Wall Time:        0.60 seconds

                                                       Time (seconds)
Module                                       User      System        Wall        Calls

--------------------------------------------------------------------------------------

**************************************************************************************

Host: DESKTOP-1OTU84N

Timers On : Mon Nov 18 15:28:45 2019
Timers Off: Mon Nov 18 15:28:45 2019

Wall Time:        0.72 seconds

                                                       Time (seconds)
Module                                       User      System        Wall        Calls

--------------------------------------------------------------------------------------

**************************************************************************************

Host: DESKTOP-1OTU84N

Timers On : Mon Nov 18 15:29:08 2019
Timers Off: Mon Nov 18 15:29:08 2019

Wall Time:        0.70 seconds

                                                       Time (seconds)
Module                                       User      System        Wall        Calls

--------------------------------------------------------------------------------------

**************************************************************************************

Host: DESKTOP-1OTU84N

Timers On : Mon Nov 18 16:28:20 2019
Timers Off: Mon Nov 18 16:28:20 2019

Wall Time:        0.69 seconds

                                                       Time (seconds)
Module                                       User      System        Wall        Calls

--------------------------------------------------------------------------------------

**************************************************************************************

Host: DESKTOP-1OTU84N

Timers On : Mon Nov 18 16:30:24 2019
Timers Off: Mon Nov 18 16:30:24 2019

Wall Time:        0.74 seconds

                                                       Time (seconds)
Module                                       User      System        Wall        Calls

--------------------------------------------------------------------------------------

**************************************************************************************

Host: DESKTOP-1OTU84N

Timers On : Tue Nov 19 08:50:17 2019
Timers Off: Tue Nov 19 08:50:30 2019

Wall Time:       13.29 seconds

                                                       Time (seconds)
Module                                       User      System        Wall        Calls

--------------------------------------------------------------------------------------

**************************************************************************************

Host: DESKTOP-1OTU84N

Timers On : Tue Nov 19 08:52:22 2019
Timers Off: Tue Nov 19 08:52:24 2019

Wall Time:        2.02 seconds

                                                       Time (seconds)
Module                                       User      System        Wall        Calls

--------------------------------------------------------------------------------------

**************************************************************************************

Host: DESKTOP-1OTU84N

Timers On : Tue Nov 19 08:53:11 2019
Timers Off: Tue Nov 19 08:53:13 2019

Wall Time:        2.19 seconds

                                                       Time (seconds)
Module                                       User      System        Wall        Calls

--------------------------------------------------------------------------------------

**************************************************************************************

Host: DESKTOP-1OTU84N

Timers On : Tue Nov 19 08:54:07 2019
Timers Off: Tue Nov 19 08:54:09 2019

Wall Time:        1.81 seconds

                                                       Time (seconds)
Module                                       User      System        Wall        Calls

--------------------------------------------------------------------------------------

**************************************************************************************

Host: DESKTOP-1OTU84N

Timers On : Tue Nov 19 08:54:43 2019
Timers Off: Tue Nov 19 08:54:45 2019

Wall Time:        1.50 seconds

                                                       Time (seconds)
Module                                       User      System        Wall        Calls

--------------------------------------------------------------------------------------

**************************************************************************************

Host: DESKTOP-1OTU84N

Timers On : Tue Nov 19 09:25:43 2019
Timers Off: Tue Nov 19 09:25:49 2019

Wall Time:        5.47 seconds

                                                       Time (seconds)
Module                                       User      System        Wall        Calls

--------------------------------------------------------------------------------------

**************************************************************************************

Host: DESKTOP-1OTU84N

Timers On : Tue Nov 19 09:26:24 2019
Timers Off: Tue Nov 19 09:26:25 2019

Wall Time:        1.54 seconds

                                                       Time (seconds)
Module                                       User      System        Wall        Calls

--------------------------------------------------------------------------------------

**************************************************************************************

Host: DESKTOP-1OTU84N

Timers On : Tue Nov 19 09:30:09 2019
Timers Off: Tue Nov 19 09:30:10 2019

Wall Time:        1.15 seconds

                                                       Time (seconds)
Module                                       User      System        Wall        Calls

--------------------------------------------------------------------------------------

**************************************************************************************

Host: DESKTOP-1OTU84N

Timers On : Tue Nov 19 09:51:10 2019
Timers Off: Tue Nov 19 09:51:11 2019

Wall Time:        1.28 seconds

                                                       Time (seconds)
Module                                       User      System        Wall        Calls

--------------------------------------------------------------------------------------

**************************************************************************************

Host: DESKTOP-1OTU84N

Timers On : Tue Nov 19 09:59:31 2019
Timers Off: Tue Nov 19 09:59:32 2019

Wall Time:        1.24 seconds

                                                       Time (seconds)
Module                                       User      System        Wall        Calls

--------------------------------------------------------------------------------------

**************************************************************************************

Host: DESKTOP-1OTU84N

Timers On : Tue Nov 19 10:00:36 2019
Timers Off: Tue Nov 19 10:00:37 2019

Wall Time:        1.55 seconds

                                                       Time (seconds)
Module                                       User      System        Wall        Calls

--------------------------------------------------------------------------------------

**************************************************************************************

Host: DESKTOP-1OTU84N

Timers On : Tue Nov 19 10:03:23 2019
Timers Off: Tue Nov 19 10:03:24 2019

Wall Time:        1.21 seconds

                                                       Time (seconds)
Module                                       User      System        Wall        Calls

--------------------------------------------------------------------------------------

**************************************************************************************

Host: DESKTOP-1OTU84N

Timers On : Tue Nov 19 10:06:29 2019
Timers Off: Tue Nov 19 10:06:30 2019

Wall Time:        0.84 seconds

                                                       Time (seconds)
Module                                       User      System        Wall        Calls

--------------------------------------------------------------------------------------

**************************************************************************************

Host: DESKTOP-1OTU84N

Timers On : Tue Nov 19 10:15:37 2019
Timers Off: Tue Nov 19 10:15:38 2019

Wall Time:        0.65 seconds

                                                       Time (seconds)
Module                                       User      System        Wall        Calls

--------------------------------------------------------------------------------------

**************************************************************************************

Host: DESKTOP-1OTU84N

Timers On : Tue Nov 19 10:24:22 2019
Timers Off: Tue Nov 19 10:24:24 2019

Wall Time:        1.22 seconds

                                                       Time (seconds)
Module                                       User      System        Wall        Calls

--------------------------------------------------------------------------------------

**************************************************************************************

Host: DESKTOP-1OTU84N

Timers On : Tue Nov 19 10:25:05 2019
Timers Off: Tue Nov 19 10:25:05 2019

Wall Time:        0.75 seconds

                                                       Time (seconds)
Module                                       User      System        Wall        Calls

--------------------------------------------------------------------------------------

**************************************************************************************

Host: DESKTOP-1OTU84N

Timers On : Tue Nov 19 10:29:59 2019
Timers Off: Tue Nov 19 10:30:01 2019

Wall Time:        1.55 seconds

                                                       Time (seconds)
Module                                       User      System        Wall        Calls

--------------------------------------------------------------------------------------

**************************************************************************************

Host: DESKTOP-1OTU84N

Timers On : Tue Nov 19 10:31:05 2019
Timers Off: Tue Nov 19 10:31:07 2019

Wall Time:        1.20 seconds

                                                       Time (seconds)
Module                                       User      System        Wall        Calls

--------------------------------------------------------------------------------------

**************************************************************************************

Host: DESKTOP-1OTU84N

Timers On : Tue Nov 19 10:33:31 2019
Timers Off: Tue Nov 19 10:33:32 2019

Wall Time:        0.99 seconds

                                                       Time (seconds)
Module                                       User      System        Wall        Calls

--------------------------------------------------------------------------------------

**************************************************************************************

Host: DESKTOP-1OTU84N

Timers On : Tue Nov 19 10:34:01 2019
Timers Off: Tue Nov 19 10:34:02 2019

Wall Time:        1.04 seconds

                                                       Time (seconds)
Module                                       User      System        Wall        Calls

--------------------------------------------------------------------------------------

**************************************************************************************

Host: DESKTOP-1OTU84N

Timers On : Tue Nov 19 10:35:34 2019
Timers Off: Tue Nov 19 10:35:37 2019

Wall Time:        2.19 seconds

                                                       Time (seconds)
Module                                       User      System        Wall        Calls

--------------------------------------------------------------------------------------

**************************************************************************************

Host: DESKTOP-1OTU84N

Timers On : Tue Nov 19 10:36:44 2019
Timers Off: Tue Nov 19 10:36:46 2019

Wall Time:        1.94 seconds

                                                       Time (seconds)
Module                                       User      System        Wall        Calls

--------------------------------------------------------------------------------------

**************************************************************************************

Host: DESKTOP-1OTU84N

Timers On : Tue Nov 19 10:37:17 2019
Timers Off: Tue Nov 19 10:37:18 2019

Wall Time:        0.89 seconds

                                                       Time (seconds)
Module                                       User      System        Wall        Calls

--------------------------------------------------------------------------------------

**************************************************************************************

Host: DESKTOP-1OTU84N

Timers On : Tue Nov 19 10:37:24 2019
Timers Off: Tue Nov 19 10:37:25 2019

Wall Time:        0.93 seconds

                                                       Time (seconds)
Module                                       User      System        Wall        Calls

--------------------------------------------------------------------------------------

**************************************************************************************

Host: DESKTOP-1OTU84N

Timers On : Tue Nov 19 10:38:04 2019
Timers Off: Tue Nov 19 10:38:05 2019

Wall Time:        1.10 seconds

                                                       Time (seconds)
Module                                       User      System        Wall        Calls

--------------------------------------------------------------------------------------

**************************************************************************************

Host: DESKTOP-1OTU84N

Timers On : Tue Nov 19 11:02:12 2019
Timers Off: Tue Nov 19 11:02:14 2019

Wall Time:        1.51 seconds

                                                       Time (seconds)
Module                                       User      System        Wall        Calls

--------------------------------------------------------------------------------------

**************************************************************************************

Host: DESKTOP-1OTU84N

Timers On : Tue Nov 19 11:44:13 2019
Timers Off: Tue Nov 19 11:44:15 2019

Wall Time:        1.47 seconds

                                                       Time (seconds)
Module                                       User      System        Wall        Calls

--------------------------------------------------------------------------------------

**************************************************************************************

Host: DESKTOP-1OTU84N

Timers On : Tue Nov 19 11:54:32 2019
Timers Off: Tue Nov 19 11:54:33 2019

Wall Time:        1.56 seconds

                                                       Time (seconds)
Module                                       User      System        Wall        Calls

--------------------------------------------------------------------------------------

**************************************************************************************

Host: DESKTOP-1OTU84N

Timers On : Tue Nov 19 14:21:35 2019
Timers Off: Tue Nov 19 14:21:36 2019

Wall Time:        0.76 seconds

                                                       Time (seconds)
Module                                       User      System        Wall        Calls

--------------------------------------------------------------------------------------

**************************************************************************************

Host: DESKTOP-1OTU84N

Timers On : Tue Nov 19 14:22:10 2019
Timers Off: Tue Nov 19 14:22:11 2019

Wall Time:        0.82 seconds

                                                       Time (seconds)
Module                                       User      System        Wall        Calls

--------------------------------------------------------------------------------------

**************************************************************************************

Host: DESKTOP-1OTU84N

Timers On : Tue Nov 19 14:23:05 2019
Timers Off: Tue Nov 19 14:23:06 2019

Wall Time:        0.82 seconds

                                                       Time (seconds)
Module                                       User      System        Wall        Calls

--------------------------------------------------------------------------------------

**************************************************************************************

Host: DESKTOP-1OTU84N

Timers On : Tue Nov 19 14:24:29 2019
Timers Off: Tue Nov 19 14:24:30 2019

Wall Time:        0.73 seconds

                                                       Time (seconds)
Module                                       User      System        Wall        Calls

--------------------------------------------------------------------------------------

**************************************************************************************

Host: DESKTOP-1OTU84N

Timers On : Tue Nov 19 14:25:43 2019
Timers Off: Tue Nov 19 14:25:44 2019

Wall Time:        0.79 seconds

                                                       Time (seconds)
Module                                       User      System        Wall        Calls

--------------------------------------------------------------------------------------

**************************************************************************************

Host: DESKTOP-1OTU84N

Timers On : Tue Nov 19 14:26:17 2019
Timers Off: Tue Nov 19 14:26:53 2019

Wall Time:       36.76 seconds

                                                       Time (seconds)
Module                                       User      System        Wall        Calls
DFH: sparsity prep                  :      1.067u      0.000s      0.636w     32 calls
DFH: initialize()                   :      4.650u      0.283s      3.478w     32 calls
DFH: AO Construction                :      0.783u      0.000s      0.403w     32 calls
DFH: AO-Met. Contraction            :      0.067u      0.000s      0.041w     32 calls
HF: Form core H                     :      0.017u      0.183s      1.017w     32 calls
HF: Form S/X                        :      0.050u      0.000s      0.009w     32 calls
HF: Guess                           :     17.267u      0.933s     12.288w     32 calls
SAD Guess                           :     16.517u      0.933s     11.810w     32 calls
HF: Form G                          :      0.267u      0.033s      0.146w    333 calls
JK: D                               :      0.000u      0.000s      0.004w    333 calls
JK: USO2AO                          :      0.000u      0.000s      0.002w    333 calls
JK: JK                              :      0.250u      0.033s      0.121w    333 calls
DFH: compute_JK()                   :      0.250u      0.033s      0.118w    333 calls
DFH: Grabbing AOs                   :      0.000u      0.000s      0.001w    333 calls
DFH: compute_J                      :      0.117u      0.033s      0.028w    333 calls
DFH: compute_K                      :      0.133u      0.000s      0.082w    333 calls
JK: AO2USO                          :      0.000u      0.000s      0.001w    333 calls
HF: Form F                          :      0.000u      0.000s      0.005w    333 calls
HF: Form D                          :      0.000u      0.000s      0.003w    333 calls
HF: DIIS                            :      0.267u      0.167s      0.497w    301 calls
DIISManager::add_entry              :      0.000u      0.150s      0.248w    301 calls
DIISManager::extrapolate            :      0.083u      0.017s      0.085w    301 calls
bMatrix setup                       :      0.017u      0.000s      0.042w    301 calls
bMatrix pseudoinverse               :      0.033u      0.000s      0.013w    301 calls
New vector                          :      0.033u      0.017s      0.025w    301 calls
HF: Form C                          :      0.017u      0.000s      0.027w    301 calls

--------------------------------------------------------------------------------------
DFH: sparsity prep                  :      1.067u      0.000s      0.636w     32 calls
DFH: initialize()                   :      4.650u      0.283s      3.478w     32 calls
| DFH: AO Construction              :      0.783u      0.000s      0.403w     32 calls
| DFH: AO-Met. Contraction          :      0.067u      0.000s      0.041w     32 calls
HF: Form core H                     :      0.017u      0.183s      1.017w     32 calls
HF: Form S/X                        :      0.050u      0.000s      0.009w     32 calls
HF: Guess                           :     17.267u      0.933s     12.288w     32 calls
| SAD Guess                         :     16.517u      0.933s     11.810w     32 calls
HF: Form G                          :      0.267u      0.033s      0.146w    333 calls
| JK: D                             :      0.000u      0.000s      0.004w    333 calls
| JK: USO2AO                        :      0.000u      0.000s      0.002w    333 calls
| JK: JK                            :      0.250u      0.033s      0.121w    333 calls
| | DFH: compute_JK()               :      0.250u      0.033s      0.118w    333 calls
| | | DFH: Grabbing AOs             :      0.000u      0.000s      0.001w    333 calls
| | | DFH: compute_J                :      0.117u      0.033s      0.028w    333 calls
| | | DFH: compute_K                :      0.133u      0.000s      0.082w    333 calls
| JK: AO2USO                        :      0.000u      0.000s      0.001w    333 calls
HF: Form F                          :      0.000u      0.000s      0.005w    333 calls
HF: Form D                          :      0.000u      0.000s      0.003w    333 calls
HF: DIIS                            :      0.267u      0.167s      0.497w    301 calls
| DIISManager::add_entry            :      0.000u      0.150s      0.248w    301 calls
| DIISManager::extrapolate          :      0.083u      0.017s      0.085w    301 calls
| | bMatrix setup                   :      0.017u      0.000s      0.042w    301 calls
| | bMatrix pseudoinverse           :      0.033u      0.000s      0.013w    301 calls
| | New vector                      :      0.033u      0.017s      0.025w    301 calls
HF: Form C                          :      0.017u      0.000s      0.027w    301 calls

**************************************************************************************

Host: DESKTOP-1OTU84N

Timers On : Tue Nov 19 14:27:24 2019
Timers Off: Tue Nov 19 14:27:56 2019

Wall Time:       31.46 seconds

                                                       Time (seconds)
Module                                       User      System        Wall        Calls
DFH: sparsity prep                  :      0.800u      0.000s      0.555w     32 calls
DFH: initialize()                   :      4.117u      0.100s      3.035w     32 calls
DFH: AO Construction                :      0.500u      0.000s      0.303w     32 calls
DFH: AO-Met. Contraction            :      0.083u      0.000s      0.035w     32 calls
HF: Form core H                     :      0.033u      0.233s      0.892w     32 calls
HF: Form S/X                        :      0.000u      0.000s      0.007w     32 calls
HF: Guess                           :     15.117u      0.817s     10.876w     32 calls
SAD Guess                           :     14.450u      0.817s     10.460w     32 calls
HF: Form G                          :      0.150u      0.067s      0.115w    333 calls
JK: D                               :      0.000u      0.000s      0.003w    333 calls
JK: USO2AO                          :      0.000u      0.000s      0.002w    333 calls
JK: JK                              :      0.150u      0.033s      0.095w    333 calls
DFH: compute_JK()                   :      0.150u      0.033s      0.093w    333 calls
DFH: Grabbing AOs                   :      0.000u      0.000s      0.001w    333 calls
DFH: compute_J                      :      0.033u      0.000s      0.022w    333 calls
DFH: compute_K                      :      0.117u      0.000s      0.065w    333 calls
JK: AO2USO                          :      0.000u      0.000s      0.001w    333 calls
HF: Form F                          :      0.000u      0.000s      0.003w    333 calls
HF: Form D                          :      0.000u      0.000s      0.002w    333 calls
HF: DIIS                            :      0.450u      0.167s      0.398w    301 calls
DIISManager::add_entry              :      0.000u      0.117s      0.193w    301 calls
DIISManager::extrapolate            :      0.117u      0.050s      0.071w    301 calls
bMatrix setup                       :      0.033u      0.033s      0.035w    301 calls
bMatrix pseudoinverse               :      0.083u      0.000s      0.011w    301 calls
New vector                          :      0.000u      0.017s      0.021w    301 calls
HF: Form C                          :      0.000u      0.000s      0.021w    301 calls

--------------------------------------------------------------------------------------
DFH: sparsity prep                  :      0.800u      0.000s      0.555w     32 calls
DFH: initialize()                   :      4.117u      0.100s      3.035w     32 calls
| DFH: AO Construction              :      0.500u      0.000s      0.303w     32 calls
| DFH: AO-Met. Contraction          :      0.083u      0.000s      0.035w     32 calls
HF: Form core H                     :      0.033u      0.233s      0.892w     32 calls
HF: Form S/X                        :      0.000u      0.000s      0.007w     32 calls
HF: Guess                           :     15.117u      0.817s     10.876w     32 calls
| SAD Guess                         :     14.450u      0.817s     10.460w     32 calls
HF: Form G                          :      0.150u      0.067s      0.115w    333 calls
| JK: D                             :      0.000u      0.000s      0.003w    333 calls
| JK: USO2AO                        :      0.000u      0.000s      0.002w    333 calls
| JK: JK                            :      0.150u      0.033s      0.095w    333 calls
| | DFH: compute_JK()               :      0.150u      0.033s      0.093w    333 calls
| | | DFH: Grabbing AOs             :      0.000u      0.000s      0.001w    333 calls
| | | DFH: compute_J                :      0.033u      0.000s      0.022w    333 calls
| | | DFH: compute_K                :      0.117u      0.000s      0.065w    333 calls
| JK: AO2USO                        :      0.000u      0.000s      0.001w    333 calls
HF: Form F                          :      0.000u      0.000s      0.003w    333 calls
HF: Form D                          :      0.000u      0.000s      0.002w    333 calls
HF: DIIS                            :      0.450u      0.167s      0.398w    301 calls
| DIISManager::add_entry            :      0.000u      0.117s      0.193w    301 calls
| DIISManager::extrapolate          :      0.117u      0.050s      0.071w    301 calls
| | bMatrix setup                   :      0.033u      0.033s      0.035w    301 calls
| | bMatrix pseudoinverse           :      0.083u      0.000s      0.011w    301 calls
| | New vector                      :      0.000u      0.017s      0.021w    301 calls
HF: Form C                          :      0.000u      0.000s      0.021w    301 calls

**************************************************************************************

Host: DESKTOP-1OTU84N

Timers On : Tue Nov 19 14:37:33 2019
Timers Off: Tue Nov 19 14:38:08 2019

Wall Time:       35.16 seconds

                                                       Time (seconds)
Module                                       User      System        Wall        Calls
DFH: sparsity prep                  :      0.917u      0.000s      0.543w     32 calls
DFH: initialize()                   :      3.800u      0.283s      2.908w     32 calls
DFH: AO Construction                :      0.517u      0.033s      0.283w     32 calls
DFH: AO-Met. Contraction            :      0.067u      0.000s      0.033w     32 calls
HF: Form core H                     :      0.017u      0.217s      0.822w     32 calls
HF: Form S/X                        :      0.083u      0.000s      0.007w     32 calls
HF: Guess                           :     14.567u      0.967s     10.494w     32 calls
SAD Guess                           :     13.967u      0.967s     10.095w     32 calls
HF: Form G                          :      0.117u      0.000s      0.103w    333 calls
JK: D                               :      0.000u      0.000s      0.003w    333 calls
JK: USO2AO                          :      0.000u      0.000s      0.001w    333 calls
JK: JK                              :      0.083u      0.000s      0.085w    333 calls
DFH: compute_JK()                   :      0.083u      0.000s      0.083w    333 calls
DFH: Grabbing AOs                   :      0.000u      0.000s      0.001w    333 calls
DFH: compute_J                      :      0.033u      0.000s      0.019w    333 calls
DFH: compute_K                      :      0.050u      0.000s      0.059w    333 calls
JK: AO2USO                          :      0.000u      0.000s      0.001w    333 calls
HF: Form F                          :      0.000u      0.000s      0.003w    333 calls
HF: Form D                          :      0.000u      0.000s      0.002w    333 calls
HF: DIIS                            :      0.233u      0.150s      0.435w    301 calls
DIISManager::add_entry              :      0.000u      0.083s      0.252w    301 calls
DIISManager::extrapolate            :      0.050u      0.033s      0.063w    301 calls
bMatrix setup                       :      0.033u      0.000s      0.031w    301 calls
bMatrix pseudoinverse               :      0.017u      0.017s      0.009w    301 calls
New vector                          :      0.000u      0.017s      0.019w    301 calls
HF: Form C                          :      0.000u      0.000s      0.019w    301 calls

--------------------------------------------------------------------------------------
DFH: sparsity prep                  :      0.917u      0.000s      0.543w     32 calls
DFH: initialize()                   :      3.800u      0.283s      2.908w     32 calls
| DFH: AO Construction              :      0.517u      0.033s      0.283w     32 calls
| DFH: AO-Met. Contraction          :      0.067u      0.000s      0.033w     32 calls
HF: Form core H                     :      0.017u      0.217s      0.822w     32 calls
HF: Form S/X                        :      0.083u      0.000s      0.007w     32 calls
HF: Guess                           :     14.567u      0.967s     10.494w     32 calls
| SAD Guess                         :     13.967u      0.967s     10.095w     32 calls
HF: Form G                          :      0.117u      0.000s      0.103w    333 calls
| JK: D                             :      0.000u      0.000s      0.003w    333 calls
| JK: USO2AO                        :      0.000u      0.000s      0.001w    333 calls
| JK: JK                            :      0.083u      0.000s      0.085w    333 calls
| | DFH: compute_JK()               :      0.083u      0.000s      0.083w    333 calls
| | | DFH: Grabbing AOs             :      0.000u      0.000s      0.001w    333 calls
| | | DFH: compute_J                :      0.033u      0.000s      0.019w    333 calls
| | | DFH: compute_K                :      0.050u      0.000s      0.059w    333 calls
| JK: AO2USO                        :      0.000u      0.000s      0.001w    333 calls
HF: Form F                          :      0.000u      0.000s      0.003w    333 calls
HF: Form D                          :      0.000u      0.000s      0.002w    333 calls
HF: DIIS                            :      0.233u      0.150s      0.435w    301 calls
| DIISManager::add_entry            :      0.000u      0.083s      0.252w    301 calls
| DIISManager::extrapolate          :      0.050u      0.033s      0.063w    301 calls
| | bMatrix setup                   :      0.033u      0.000s      0.031w    301 calls
| | bMatrix pseudoinverse           :      0.017u      0.017s      0.009w    301 calls
| | New vector                      :      0.000u      0.017s      0.019w    301 calls
HF: Form C                          :      0.000u      0.000s      0.019w    301 calls

**************************************************************************************

Host: DESKTOP-1OTU84N

Timers On : Tue Nov 19 14:39:37 2019
Timers Off: Tue Nov 19 14:40:08 2019

Wall Time:       30.79 seconds

                                                       Time (seconds)
Module                                       User      System        Wall        Calls
DFH: sparsity prep                  :      0.867u      0.000s      0.542w     32 calls
DFH: initialize()                   :      3.567u      0.300s      2.901w     32 calls
DFH: AO Construction                :      0.583u      0.000s      0.289w     32 calls
DFH: AO-Met. Contraction            :      0.050u      0.000s      0.033w     32 calls
HF: Form core H                     :      0.033u      0.083s      0.833w     32 calls
HF: Form S/X                        :      0.000u      0.000s      0.007w     32 calls
HF: Guess                           :     14.500u      0.733s     10.201w     32 calls
SAD Guess                           :     13.767u      0.733s      9.799w     32 calls
HF: Form G                          :      0.167u      0.000s      0.109w    333 calls
JK: D                               :      0.000u      0.000s      0.003w    333 calls
JK: USO2AO                          :      0.000u      0.000s      0.001w    333 calls
JK: JK                              :      0.133u      0.000s      0.090w    333 calls
DFH: compute_JK()                   :      0.133u      0.000s      0.088w    333 calls
DFH: Grabbing AOs                   :      0.000u      0.000s      0.001w    333 calls
DFH: compute_J                      :      0.033u      0.000s      0.021w    333 calls
DFH: compute_K                      :      0.100u      0.000s      0.062w    333 calls
JK: AO2USO                          :      0.000u      0.000s      0.001w    333 calls
HF: Form F                          :      0.000u      0.000s      0.003w    333 calls
HF: Form D                          :      0.000u      0.000s      0.002w    333 calls
HF: DIIS                            :      0.200u      0.167s      0.478w    301 calls
DIISManager::add_entry              :      0.000u      0.083s      0.288w    301 calls
DIISManager::extrapolate            :      0.050u      0.050s      0.066w    301 calls
bMatrix setup                       :      0.033u      0.033s      0.033w    301 calls
bMatrix pseudoinverse               :      0.000u      0.000s      0.010w    301 calls
New vector                          :      0.017u      0.017s      0.019w    301 calls
HF: Form C                          :      0.050u      0.000s      0.020w    301 calls

--------------------------------------------------------------------------------------
DFH: sparsity prep                  :      0.867u      0.000s      0.542w     32 calls
DFH: initialize()                   :      3.567u      0.300s      2.901w     32 calls
| DFH: AO Construction              :      0.583u      0.000s      0.289w     32 calls
| DFH: AO-Met. Contraction          :      0.050u      0.000s      0.033w     32 calls
HF: Form core H                     :      0.033u      0.083s      0.833w     32 calls
HF: Form S/X                        :      0.000u      0.000s      0.007w     32 calls
HF: Guess                           :     14.500u      0.733s     10.201w     32 calls
| SAD Guess                         :     13.767u      0.733s      9.799w     32 calls
HF: Form G                          :      0.167u      0.000s      0.109w    333 calls
| JK: D                             :      0.000u      0.000s      0.003w    333 calls
| JK: USO2AO                        :      0.000u      0.000s      0.001w    333 calls
| JK: JK                            :      0.133u      0.000s      0.090w    333 calls
| | DFH: compute_JK()               :      0.133u      0.000s      0.088w    333 calls
| | | DFH: Grabbing AOs             :      0.000u      0.000s      0.001w    333 calls
| | | DFH: compute_J                :      0.033u      0.000s      0.021w    333 calls
| | | DFH: compute_K                :      0.100u      0.000s      0.062w    333 calls
| JK: AO2USO                        :      0.000u      0.000s      0.001w    333 calls
HF: Form F                          :      0.000u      0.000s      0.003w    333 calls
HF: Form D                          :      0.000u      0.000s      0.002w    333 calls
HF: DIIS                            :      0.200u      0.167s      0.478w    301 calls
| DIISManager::add_entry            :      0.000u      0.083s      0.288w    301 calls
| DIISManager::extrapolate          :      0.050u      0.050s      0.066w    301 calls
| | bMatrix setup                   :      0.033u      0.033s      0.033w    301 calls
| | bMatrix pseudoinverse           :      0.000u      0.000s      0.010w    301 calls
| | New vector                      :      0.017u      0.017s      0.019w    301 calls
HF: Form C                          :      0.050u      0.000s      0.020w    301 calls

**************************************************************************************

Host: DESKTOP-1OTU84N

Timers On : Tue Nov 19 14:40:42 2019
Timers Off: Tue Nov 19 14:41:13 2019

Wall Time:       30.80 seconds

                                                       Time (seconds)
Module                                       User      System        Wall        Calls
DFH: sparsity prep                  :      0.950u      0.000s      0.542w     32 calls
DFH: initialize()                   :      3.933u      0.150s      2.934w     32 calls
DFH: AO Construction                :      0.517u      0.000s      0.307w     32 calls
DFH: AO-Met. Contraction            :      0.033u      0.000s      0.035w     32 calls
HF: Form core H                     :      0.017u      0.350s      0.862w     32 calls
HF: Form S/X                        :      0.000u      0.000s      0.007w     32 calls
HF: Guess                           :     15.050u      0.617s     10.539w     32 calls
SAD Guess                           :     14.333u      0.617s     10.124w     32 calls
HF: Form G                          :      0.117u      0.000s      0.111w    333 calls
JK: D                               :      0.000u      0.000s      0.003w    333 calls
JK: USO2AO                          :      0.000u      0.000s      0.002w    333 calls
JK: JK                              :      0.083u      0.000s      0.091w    333 calls
DFH: compute_JK()                   :      0.083u      0.000s      0.089w    333 calls
DFH: Grabbing AOs                   :      0.000u      0.000s      0.001w    333 calls
DFH: compute_J                      :      0.000u      0.000s      0.021w    333 calls
DFH: compute_K                      :      0.083u      0.000s      0.062w    333 calls
JK: AO2USO                          :      0.000u      0.000s      0.001w    333 calls
HF: Form F                          :      0.000u      0.000s      0.003w    333 calls
HF: Form D                          :      0.000u      0.000s      0.003w    333 calls
HF: DIIS                            :      0.250u      0.150s      0.479w    301 calls
DIISManager::add_entry              :      0.000u      0.100s      0.281w    301 calls
DIISManager::extrapolate            :      0.017u      0.050s      0.068w    301 calls
bMatrix setup                       :      0.017u      0.017s      0.034w    301 calls
bMatrix pseudoinverse               :      0.000u      0.000s      0.010w    301 calls
New vector                          :      0.000u      0.033s      0.020w    301 calls
HF: Form C                          :      0.000u      0.000s      0.021w    301 calls

--------------------------------------------------------------------------------------
DFH: sparsity prep                  :      0.950u      0.000s      0.542w     32 calls
DFH: initialize()                   :      3.933u      0.150s      2.934w     32 calls
| DFH: AO Construction              :      0.517u      0.000s      0.307w     32 calls
| DFH: AO-Met. Contraction          :      0.033u      0.000s      0.035w     32 calls
HF: Form core H                     :      0.017u      0.350s      0.862w     32 calls
HF: Form S/X                        :      0.000u      0.000s      0.007w     32 calls
HF: Guess                           :     15.050u      0.617s     10.539w     32 calls
| SAD Guess                         :     14.333u      0.617s     10.124w     32 calls
HF: Form G                          :      0.117u      0.000s      0.111w    333 calls
| JK: D                             :      0.000u      0.000s      0.003w    333 calls
| JK: USO2AO                        :      0.000u      0.000s      0.002w    333 calls
| JK: JK                            :      0.083u      0.000s      0.091w    333 calls
| | DFH: compute_JK()               :      0.083u      0.000s      0.089w    333 calls
| | | DFH: Grabbing AOs             :      0.000u      0.000s      0.001w    333 calls
| | | DFH: compute_J                :      0.000u      0.000s      0.021w    333 calls
| | | DFH: compute_K                :      0.083u      0.000s      0.062w    333 calls
| JK: AO2USO                        :      0.000u      0.000s      0.001w    333 calls
HF: Form F                          :      0.000u      0.000s      0.003w    333 calls
HF: Form D                          :      0.000u      0.000s      0.003w    333 calls
HF: DIIS                            :      0.250u      0.150s      0.479w    301 calls
| DIISManager::add_entry            :      0.000u      0.100s      0.281w    301 calls
| DIISManager::extrapolate          :      0.017u      0.050s      0.068w    301 calls
| | bMatrix setup                   :      0.017u      0.017s      0.034w    301 calls
| | bMatrix pseudoinverse           :      0.000u      0.000s      0.010w    301 calls
| | New vector                      :      0.000u      0.033s      0.020w    301 calls
HF: Form C                          :      0.000u      0.000s      0.021w    301 calls

**************************************************************************************

Host: DESKTOP-1OTU84N

Timers On : Tue Nov 19 14:43:13 2019
Timers Off: Tue Nov 19 14:43:40 2019

Wall Time:       27.36 seconds

                                                       Time (seconds)
Module                                       User      System        Wall        Calls
DFH: sparsity prep                  :      1.000u      0.000s      0.494w     32 calls
DFH: initialize()                   :      3.400u      0.183s      2.671w     32 calls
DFH: AO Construction                :      0.467u      0.000s      0.258w     32 calls
DFH: AO-Met. Contraction            :      0.050u      0.000s      0.031w     32 calls
HF: Form core H                     :      0.000u      0.167s      0.763w     32 calls
HF: Form S/X                        :      0.000u      0.000s      0.006w     32 calls
HF: Guess                           :     13.333u      0.650s      9.438w     32 calls
SAD Guess                           :     12.717u      0.650s      9.070w     32 calls
HF: Form G                          :      0.033u      0.000s      0.099w    333 calls
JK: D                               :      0.000u      0.000s      0.002w    333 calls
JK: USO2AO                          :      0.000u      0.000s      0.001w    333 calls
JK: JK                              :      0.000u      0.000s      0.081w    333 calls
DFH: compute_JK()                   :      0.000u      0.000s      0.080w    333 calls
DFH: Grabbing AOs                   :      0.000u      0.000s      0.001w    333 calls
DFH: compute_J                      :      0.000u      0.000s      0.018w    333 calls
DFH: compute_K                      :      0.000u      0.000s      0.056w    333 calls
JK: AO2USO                          :      0.000u      0.000s      0.001w    333 calls
HF: Form F                          :      0.000u      0.000s      0.003w    333 calls
HF: Form D                          :      0.000u      0.000s      0.002w    333 calls
HF: DIIS                            :      0.200u      0.083s      0.465w    301 calls
DIISManager::add_entry              :      0.000u      0.033s      0.291w    301 calls
DIISManager::extrapolate            :      0.017u      0.050s      0.060w    301 calls
bMatrix setup                       :      0.000u      0.033s      0.030w    301 calls
bMatrix pseudoinverse               :      0.017u      0.000s      0.008w    301 calls
New vector                          :      0.000u      0.017s      0.018w    301 calls
HF: Form C                          :      0.050u      0.000s      0.018w    301 calls

--------------------------------------------------------------------------------------
DFH: sparsity prep                  :      1.000u      0.000s      0.494w     32 calls
DFH: initialize()                   :      3.400u      0.183s      2.671w     32 calls
| DFH: AO Construction              :      0.467u      0.000s      0.258w     32 calls
| DFH: AO-Met. Contraction          :      0.050u      0.000s      0.031w     32 calls
HF: Form core H                     :      0.000u      0.167s      0.763w     32 calls
HF: Form S/X                        :      0.000u      0.000s      0.006w     32 calls
HF: Guess                           :     13.333u      0.650s      9.438w     32 calls
| SAD Guess                         :     12.717u      0.650s      9.070w     32 calls
HF: Form G                          :      0.033u      0.000s      0.099w    333 calls
| JK: D                             :      0.000u      0.000s      0.002w    333 calls
| JK: USO2AO                        :      0.000u      0.000s      0.001w    333 calls
| JK: JK                            :      0.000u      0.000s      0.081w    333 calls
| | DFH: compute_JK()               :      0.000u      0.000s      0.080w    333 calls
| | | DFH: Grabbing AOs             :      0.000u      0.000s      0.001w    333 calls
| | | DFH: compute_J                :      0.000u      0.000s      0.018w    333 calls
| | | DFH: compute_K                :      0.000u      0.000s      0.056w    333 calls
| JK: AO2USO                        :      0.000u      0.000s      0.001w    333 calls
HF: Form F                          :      0.000u      0.000s      0.003w    333 calls
HF: Form D                          :      0.000u      0.000s      0.002w    333 calls
HF: DIIS                            :      0.200u      0.083s      0.465w    301 calls
| DIISManager::add_entry            :      0.000u      0.033s      0.291w    301 calls
| DIISManager::extrapolate          :      0.017u      0.050s      0.060w    301 calls
| | bMatrix setup                   :      0.000u      0.033s      0.030w    301 calls
| | bMatrix pseudoinverse           :      0.017u      0.000s      0.008w    301 calls
| | New vector                      :      0.000u      0.017s      0.018w    301 calls
HF: Form C                          :      0.050u      0.000s      0.018w    301 calls

**************************************************************************************

Host: DESKTOP-1OTU84N

Timers On : Tue Nov 19 14:58:41 2019
Timers Off: Tue Nov 19 14:59:23 2019

Wall Time:       41.64 seconds

                                                       Time (seconds)
Module                                       User      System        Wall        Calls
DFH: sparsity prep                  :      0.833u      0.000s      0.533w     32 calls
DFH: initialize()                   :      3.683u      0.233s      2.982w     32 calls
DFH: AO Construction                :      0.517u      0.000s      0.315w     32 calls
DFH: AO-Met. Contraction            :      0.067u      0.000s      0.035w     32 calls
HF: Form core H                     :      0.033u      0.267s      0.836w     32 calls
HF: Form S/X                        :      0.000u      0.000s      0.007w     32 calls
HF: Guess                           :     14.317u      0.717s     10.211w     32 calls
SAD Guess                           :     13.467u      0.717s      9.806w     32 calls
HF: Form G                          :      0.167u      0.050s      0.114w    333 calls
JK: D                               :      0.000u      0.000s      0.003w    333 calls
JK: USO2AO                          :      0.000u      0.000s      0.002w    333 calls
JK: JK                              :      0.167u      0.033s      0.094w    333 calls
DFH: compute_JK()                   :      0.167u      0.033s      0.092w    333 calls
DFH: Grabbing AOs                   :      0.000u      0.000s      0.001w    333 calls
DFH: compute_J                      :      0.017u      0.000s      0.022w    333 calls
DFH: compute_K                      :      0.150u      0.000s      0.064w    333 calls
JK: AO2USO                          :      0.000u      0.000s      0.001w    333 calls
HF: Form F                          :      0.000u      0.000s      0.003w    333 calls
HF: Form D                          :      0.000u      0.000s      0.002w    333 calls
HF: DIIS                            :      0.217u      0.183s      0.495w    301 calls
DIISManager::add_entry              :      0.000u      0.150s      0.298w    301 calls
DIISManager::extrapolate            :      0.033u      0.033s      0.068w    301 calls
bMatrix setup                       :      0.000u      0.033s      0.034w    301 calls
bMatrix pseudoinverse               :      0.000u      0.000s      0.010w    301 calls
New vector                          :      0.000u      0.000s      0.020w    301 calls
HF: Form C                          :      0.033u      0.000s      0.020w    301 calls

--------------------------------------------------------------------------------------
DFH: sparsity prep                  :      0.833u      0.000s      0.533w     32 calls
DFH: initialize()                   :      3.683u      0.233s      2.982w     32 calls
| DFH: AO Construction              :      0.517u      0.000s      0.315w     32 calls
| DFH: AO-Met. Contraction          :      0.067u      0.000s      0.035w     32 calls
HF: Form core H                     :      0.033u      0.267s      0.836w     32 calls
HF: Form S/X                        :      0.000u      0.000s      0.007w     32 calls
HF: Guess                           :     14.317u      0.717s     10.211w     32 calls
| SAD Guess                         :     13.467u      0.717s      9.806w     32 calls
HF: Form G                          :      0.167u      0.050s      0.114w    333 calls
| JK: D                             :      0.000u      0.000s      0.003w    333 calls
| JK: USO2AO                        :      0.000u      0.000s      0.002w    333 calls
| JK: JK                            :      0.167u      0.033s      0.094w    333 calls
| | DFH: compute_JK()               :      0.167u      0.033s      0.092w    333 calls
| | | DFH: Grabbing AOs             :      0.000u      0.000s      0.001w    333 calls
| | | DFH: compute_J                :      0.017u      0.000s      0.022w    333 calls
| | | DFH: compute_K                :      0.150u      0.000s      0.064w    333 calls
| JK: AO2USO                        :      0.000u      0.000s      0.001w    333 calls
HF: Form F                          :      0.000u      0.000s      0.003w    333 calls
HF: Form D                          :      0.000u      0.000s      0.002w    333 calls
HF: DIIS                            :      0.217u      0.183s      0.495w    301 calls
| DIISManager::add_entry            :      0.000u      0.150s      0.298w    301 calls
| DIISManager::extrapolate          :      0.033u      0.033s      0.068w    301 calls
| | bMatrix setup                   :      0.000u      0.033s      0.034w    301 calls
| | bMatrix pseudoinverse           :      0.000u      0.000s      0.010w    301 calls
| | New vector                      :      0.000u      0.000s      0.020w    301 calls
HF: Form C                          :      0.033u      0.000s      0.020w    301 calls

**************************************************************************************

Host: DESKTOP-1OTU84N

Timers On : Tue Nov 19 15:06:52 2019
Timers Off: Tue Nov 19 15:07:26 2019

Wall Time:       34.81 seconds

                                                       Time (seconds)
Module                                       User      System        Wall        Calls
DFH: sparsity prep                  :      0.800u      0.000s      0.451w     32 calls
DFH: initialize()                   :      3.167u      0.117s      2.446w     32 calls
DFH: AO Construction                :      0.317u      0.000s      0.234w     32 calls
DFH: AO-Met. Contraction            :      0.067u      0.000s      0.028w     32 calls
HF: Form core H                     :      0.000u      0.217s      0.704w     32 calls
HF: Form S/X                        :      0.000u      0.017s      0.006w     32 calls
HF: Guess                           :     12.067u      0.583s      8.724w     32 calls
SAD Guess                           :     11.517u      0.583s      8.390w     32 calls
HF: Form G                          :      0.117u      0.017s      0.092w    333 calls
JK: D                               :      0.000u      0.000s      0.002w    333 calls
JK: USO2AO                          :      0.000u      0.000s      0.001w    333 calls
JK: JK                              :      0.083u      0.000s      0.077w    333 calls
DFH: compute_JK()                   :      0.083u      0.000s      0.075w    333 calls
DFH: Grabbing AOs                   :      0.000u      0.000s      0.001w    333 calls
DFH: compute_J                      :      0.000u      0.000s      0.018w    333 calls
DFH: compute_K                      :      0.083u      0.000s      0.052w    333 calls
JK: AO2USO                          :      0.000u      0.000s      0.001w    333 calls
HF: Form F                          :      0.000u      0.000s      0.003w    333 calls
HF: Form D                          :      0.000u      0.000s      0.002w    333 calls
HF: DIIS                            :      0.150u      0.150s      0.445w    301 calls
DIISManager::add_entry              :      0.033u      0.100s      0.284w    301 calls
DIISManager::extrapolate            :      0.000u      0.050s      0.056w    301 calls
bMatrix setup                       :      0.000u      0.033s      0.028w    301 calls
bMatrix pseudoinverse               :      0.000u      0.000s      0.008w    301 calls
New vector                          :      0.000u      0.017s      0.017w    301 calls
HF: Form C                          :      0.033u      0.000s      0.017w    301 calls

--------------------------------------------------------------------------------------
DFH: sparsity prep                  :      0.800u      0.000s      0.451w     32 calls
DFH: initialize()                   :      3.167u      0.117s      2.446w     32 calls
| DFH: AO Construction              :      0.317u      0.000s      0.234w     32 calls
| DFH: AO-Met. Contraction          :      0.067u      0.000s      0.028w     32 calls
HF: Form core H                     :      0.000u      0.217s      0.704w     32 calls
HF: Form S/X                        :      0.000u      0.017s      0.006w     32 calls
HF: Guess                           :     12.067u      0.583s      8.724w     32 calls
| SAD Guess                         :     11.517u      0.583s      8.390w     32 calls
HF: Form G                          :      0.117u      0.017s      0.092w    333 calls
| JK: D                             :      0.000u      0.000s      0.002w    333 calls
| JK: USO2AO                        :      0.000u      0.000s      0.001w    333 calls
| JK: JK                            :      0.083u      0.000s      0.077w    333 calls
| | DFH: compute_JK()               :      0.083u      0.000s      0.075w    333 calls
| | | DFH: Grabbing AOs             :      0.000u      0.000s      0.001w    333 calls
| | | DFH: compute_J                :      0.000u      0.000s      0.018w    333 calls
| | | DFH: compute_K                :      0.083u      0.000s      0.052w    333 calls
| JK: AO2USO                        :      0.000u      0.000s      0.001w    333 calls
HF: Form F                          :      0.000u      0.000s      0.003w    333 calls
HF: Form D                          :      0.000u      0.000s      0.002w    333 calls
HF: DIIS                            :      0.150u      0.150s      0.445w    301 calls
| DIISManager::add_entry            :      0.033u      0.100s      0.284w    301 calls
| DIISManager::extrapolate          :      0.000u      0.050s      0.056w    301 calls
| | bMatrix setup                   :      0.000u      0.033s      0.028w    301 calls
| | bMatrix pseudoinverse           :      0.000u      0.000s      0.008w    301 calls
| | New vector                      :      0.000u      0.017s      0.017w    301 calls
HF: Form C                          :      0.033u      0.000s      0.017w    301 calls

**************************************************************************************

Host: DESKTOP-1OTU84N

Timers On : Tue Nov 19 15:25:27 2019
Timers Off: Tue Nov 19 15:26:09 2019

Wall Time:       42.06 seconds

                                                       Time (seconds)
Module                                       User      System        Wall        Calls
DFH: sparsity prep                  :      1.017u      0.000s      0.572w     32 calls
DFH: initialize()                   :      4.000u      0.283s      3.127w     32 calls
DFH: AO Construction                :      0.517u      0.000s      0.299w     32 calls
DFH: AO-Met. Contraction            :      0.033u      0.000s      0.035w     32 calls
HF: Form core H                     :      0.017u      0.133s      0.890w     32 calls
HF: Form S/X                        :      0.017u      0.000s      0.007w     32 calls
HF: Guess                           :     15.350u      0.667s     10.959w     32 calls
SAD Guess                           :     14.467u      0.633s     10.533w     32 calls
HF: Form G                          :      0.050u      0.067s      0.117w    333 calls
JK: D                               :      0.000u      0.000s      0.003w    333 calls
JK: USO2AO                          :      0.000u      0.000s      0.002w    333 calls
JK: JK                              :      0.050u      0.033s      0.096w    333 calls
DFH: compute_JK()                   :      0.050u      0.033s      0.094w    333 calls
DFH: Grabbing AOs                   :      0.000u      0.000s      0.001w    333 calls
DFH: compute_J                      :      0.000u      0.000s      0.022w    333 calls
DFH: compute_K                      :      0.050u      0.000s      0.065w    333 calls
JK: AO2USO                          :      0.000u      0.000s      0.001w    333 calls
HF: Form F                          :      0.000u      0.000s      0.003w    333 calls
HF: Form D                          :      0.000u      0.000s      0.003w    333 calls
HF: DIIS                            :      0.400u      0.067s      0.529w    301 calls
DIISManager::add_entry              :      0.000u      0.017s      0.329w    301 calls
DIISManager::extrapolate            :      0.033u      0.050s      0.068w    301 calls
bMatrix setup                       :      0.000u      0.050s      0.034w    301 calls
bMatrix pseudoinverse               :      0.000u      0.000s      0.010w    301 calls
New vector                          :      0.000u      0.000s      0.020w    301 calls
HF: Form C                          :      0.100u      0.000s      0.021w    301 calls

--------------------------------------------------------------------------------------
DFH: sparsity prep                  :      1.017u      0.000s      0.572w     32 calls
DFH: initialize()                   :      4.000u      0.283s      3.127w     32 calls
| DFH: AO Construction              :      0.517u      0.000s      0.299w     32 calls
| DFH: AO-Met. Contraction          :      0.033u      0.000s      0.035w     32 calls
HF: Form core H                     :      0.017u      0.133s      0.890w     32 calls
HF: Form S/X                        :      0.017u      0.000s      0.007w     32 calls
HF: Guess                           :     15.350u      0.667s     10.959w     32 calls
| SAD Guess                         :     14.467u      0.633s     10.533w     32 calls
HF: Form G                          :      0.050u      0.067s      0.117w    333 calls
| JK: D                             :      0.000u      0.000s      0.003w    333 calls
| JK: USO2AO                        :      0.000u      0.000s      0.002w    333 calls
| JK: JK                            :      0.050u      0.033s      0.096w    333 calls
| | DFH: compute_JK()               :      0.050u      0.033s      0.094w    333 calls
| | | DFH: Grabbing AOs             :      0.000u      0.000s      0.001w    333 calls
| | | DFH: compute_J                :      0.000u      0.000s      0.022w    333 calls
| | | DFH: compute_K                :      0.050u      0.000s      0.065w    333 calls
| JK: AO2USO                        :      0.000u      0.000s      0.001w    333 calls
HF: Form F                          :      0.000u      0.000s      0.003w    333 calls
HF: Form D                          :      0.000u      0.000s      0.003w    333 calls
HF: DIIS                            :      0.400u      0.067s      0.529w    301 calls
| DIISManager::add_entry            :      0.000u      0.017s      0.329w    301 calls
| DIISManager::extrapolate          :      0.033u      0.050s      0.068w    301 calls
| | bMatrix setup                   :      0.000u      0.050s      0.034w    301 calls
| | bMatrix pseudoinverse           :      0.000u      0.000s      0.010w    301 calls
| | New vector                      :      0.000u      0.000s      0.020w    301 calls
HF: Form C                          :      0.100u      0.000s      0.021w    301 calls

**************************************************************************************

Host: DESKTOP-1OTU84N

Timers On : Tue Nov 19 15:26:59 2019
Timers Off: Tue Nov 19 15:28:54 2019

Wall Time:      114.77 seconds

                                                       Time (seconds)
Module                                       User      System        Wall        Calls
DFH: sparsity prep                  :      0.783u      0.000s      0.498w     32 calls
DFH: initialize()                   :      3.517u      0.200s      2.707w     32 calls
DFH: AO Construction                :      0.333u      0.000s      0.264w     32 calls
DFH: AO-Met. Contraction            :      0.067u      0.000s      0.030w     32 calls
HF: Form core H                     :      0.000u      0.233s      0.760w     32 calls
HF: Form S/X                        :      0.000u      0.000s      0.006w     32 calls
HF: Guess                           :     13.400u      0.850s      9.439w     32 calls
SAD Guess                           :     12.767u      0.817s      9.071w     32 calls
HF: Form G                          :      0.150u      0.033s      0.102w    333 calls
JK: D                               :      0.017u      0.000s      0.002w    333 calls
JK: USO2AO                          :      0.017u      0.000s      0.001w    333 calls
JK: JK                              :      0.117u      0.033s      0.084w    333 calls
DFH: compute_JK()                   :      0.117u      0.000s      0.082w    333 calls
DFH: Grabbing AOs                   :      0.000u      0.000s      0.001w    333 calls
DFH: compute_J                      :      0.050u      0.000s      0.019w    333 calls
DFH: compute_K                      :      0.067u      0.000s      0.058w    333 calls
JK: AO2USO                          :      0.000u      0.000s      0.001w    333 calls
HF: Form F                          :      0.000u      0.000s      0.003w    333 calls
HF: Form D                          :      0.000u      0.000s      0.002w    333 calls
HF: DIIS                            :      0.100u      0.100s      0.459w    301 calls
DIISManager::add_entry              :      0.000u      0.067s      0.280w    301 calls
DIISManager::extrapolate            :      0.000u      0.033s      0.062w    301 calls
bMatrix setup                       :      0.000u      0.033s      0.031w    301 calls
bMatrix pseudoinverse               :      0.000u      0.000s      0.009w    301 calls
New vector                          :      0.000u      0.000s      0.018w    301 calls
HF: Form C                          :      0.000u      0.000s      0.019w    301 calls

--------------------------------------------------------------------------------------
DFH: sparsity prep                  :      0.783u      0.000s      0.498w     32 calls
DFH: initialize()                   :      3.517u      0.200s      2.707w     32 calls
| DFH: AO Construction              :      0.333u      0.000s      0.264w     32 calls
| DFH: AO-Met. Contraction          :      0.067u      0.000s      0.030w     32 calls
HF: Form core H                     :      0.000u      0.233s      0.760w     32 calls
HF: Form S/X                        :      0.000u      0.000s      0.006w     32 calls
HF: Guess                           :     13.400u      0.850s      9.439w     32 calls
| SAD Guess                         :     12.767u      0.817s      9.071w     32 calls
HF: Form G                          :      0.150u      0.033s      0.102w    333 calls
| JK: D                             :      0.017u      0.000s      0.002w    333 calls
| JK: USO2AO                        :      0.017u      0.000s      0.001w    333 calls
| JK: JK                            :      0.117u      0.033s      0.084w    333 calls
| | DFH: compute_JK()               :      0.117u      0.000s      0.082w    333 calls
| | | DFH: Grabbing AOs             :      0.000u      0.000s      0.001w    333 calls
| | | DFH: compute_J                :      0.050u      0.000s      0.019w    333 calls
| | | DFH: compute_K                :      0.067u      0.000s      0.058w    333 calls
| JK: AO2USO                        :      0.000u      0.000s      0.001w    333 calls
HF: Form F                          :      0.000u      0.000s      0.003w    333 calls
HF: Form D                          :      0.000u      0.000s      0.002w    333 calls
HF: DIIS                            :      0.100u      0.100s      0.459w    301 calls
| DIISManager::add_entry            :      0.000u      0.067s      0.280w    301 calls
| DIISManager::extrapolate          :      0.000u      0.033s      0.062w    301 calls
| | bMatrix setup                   :      0.000u      0.033s      0.031w    301 calls
| | bMatrix pseudoinverse           :      0.000u      0.000s      0.009w    301 calls
| | New vector                      :      0.000u      0.000s      0.018w    301 calls
HF: Form C                          :      0.000u      0.000s      0.019w    301 calls

**************************************************************************************

Host: DESKTOP-1OTU84N

Timers On : Tue Nov 19 15:34:04 2019
Timers Off: Tue Nov 19 15:35:41 2019

Wall Time:       97.67 seconds

                                                       Time (seconds)
Module                                       User      System        Wall        Calls
DFH: sparsity prep                  :      0.900u      0.000s      0.560w     32 calls
DFH: initialize()                   :      3.983u      0.400s      3.159w     32 calls
DFH: AO Construction                :      0.600u      0.000s      0.321w     32 calls
DFH: AO-Met. Contraction            :      0.017u      0.017s      0.034w     32 calls
HF: Form core H                     :      0.033u      0.300s      0.876w     32 calls
HF: Form S/X                        :      0.000u      0.000s      0.007w     32 calls
HF: Guess                           :     15.433u      0.700s     11.066w     32 calls
SAD Guess                           :     14.800u      0.700s     10.638w     32 calls
HF: Form G                          :      0.167u      0.017s      0.116w    333 calls
JK: D                               :      0.000u      0.000s      0.003w    333 calls
JK: USO2AO                          :      0.000u      0.000s      0.002w    333 calls
JK: JK                              :      0.133u      0.000s      0.096w    333 calls
DFH: compute_JK()                   :      0.133u      0.000s      0.094w    333 calls
DFH: Grabbing AOs                   :      0.000u      0.000s      0.001w    333 calls
DFH: compute_J                      :      0.050u      0.000s      0.023w    333 calls
DFH: compute_K                      :      0.050u      0.000s      0.065w    333 calls
JK: AO2USO                          :      0.000u      0.000s      0.001w    333 calls
HF: Form F                          :      0.000u      0.000s      0.003w    333 calls
HF: Form D                          :      0.000u      0.000s      0.003w    333 calls
HF: DIIS                            :      0.217u      0.183s      0.481w    301 calls
DIISManager::add_entry              :      0.017u      0.067s      0.281w    301 calls
DIISManager::extrapolate            :      0.033u      0.117s      0.071w    301 calls
bMatrix setup                       :      0.000u      0.033s      0.035w    301 calls
bMatrix pseudoinverse               :      0.033u      0.000s      0.011w    301 calls
New vector                          :      0.000u      0.067s      0.021w    301 calls
HF: Form C                          :      0.000u      0.000s      0.021w    301 calls

--------------------------------------------------------------------------------------
DFH: sparsity prep                  :      0.900u      0.000s      0.560w     32 calls
DFH: initialize()                   :      3.983u      0.400s      3.159w     32 calls
| DFH: AO Construction              :      0.600u      0.000s      0.321w     32 calls
| DFH: AO-Met. Contraction          :      0.017u      0.017s      0.034w     32 calls
HF: Form core H                     :      0.033u      0.300s      0.876w     32 calls
HF: Form S/X                        :      0.000u      0.000s      0.007w     32 calls
HF: Guess                           :     15.433u      0.700s     11.066w     32 calls
| SAD Guess                         :     14.800u      0.700s     10.638w     32 calls
HF: Form G                          :      0.167u      0.017s      0.116w    333 calls
| JK: D                             :      0.000u      0.000s      0.003w    333 calls
| JK: USO2AO                        :      0.000u      0.000s      0.002w    333 calls
| JK: JK                            :      0.133u      0.000s      0.096w    333 calls
| | DFH: compute_JK()               :      0.133u      0.000s      0.094w    333 calls
| | | DFH: Grabbing AOs             :      0.000u      0.000s      0.001w    333 calls
| | | DFH: compute_J                :      0.050u      0.000s      0.023w    333 calls
| | | DFH: compute_K                :      0.050u      0.000s      0.065w    333 calls
| JK: AO2USO                        :      0.000u      0.000s      0.001w    333 calls
HF: Form F                          :      0.000u      0.000s      0.003w    333 calls
HF: Form D                          :      0.000u      0.000s      0.003w    333 calls
HF: DIIS                            :      0.217u      0.183s      0.481w    301 calls
| DIISManager::add_entry            :      0.017u      0.067s      0.281w    301 calls
| DIISManager::extrapolate          :      0.033u      0.117s      0.071w    301 calls
| | bMatrix setup                   :      0.000u      0.033s      0.035w    301 calls
| | bMatrix pseudoinverse           :      0.033u      0.000s      0.011w    301 calls
| | New vector                      :      0.000u      0.067s      0.021w    301 calls
HF: Form C                          :      0.000u      0.000s      0.021w    301 calls

**************************************************************************************
