
                                 *****************
                                 * O   R   C   A *
                                 *****************

           --- An Ab Initio, DFT and Semiempirical electronic structure package ---

                  #######################################################
                  #                        -***-                        #
                  #          Department of theory and spectroscopy      #
                  #               Directorship: Frank Neese             #
                  #        Max Planck Institute fuer Kohlenforschung    #
                  #                Kaiser Wilhelm Platz 1               #
                  #                 D-45470 Muelheim/Ruhr               #
                  #                      Germany                        #
                  #                                                     #
                  #                  All rights reserved                #
                  #                        -***-                        #
                  #######################################################


                         Program Version 4.1.1  - RELEASE  -


 With contributions from (in alphabetic order):
   Daniel Aravena         : Magnetic Properties
   Michael Atanasov       : Ab Initio Ligand Field Theory
   Alexander A. Auer      : GIAO ZORA
   Ute Becker             : Parallelization
   Giovanni Bistoni       : ED, Open-shell LED
   Martin Brehm           : Molecular dynamics
   Dmytro Bykov           : SCF Hessian
   Vijay G. Chilkuri      : MRCI spin determinant printing
   Dipayan Datta          : RHF DLPNO-CCSD density
   Achintya Kumar Dutta   : EOM-CC, STEOM-CC
   Dmitry Ganyushin       : Spin-Orbit,Spin-Spin,Magnetic field MRCI
   Miquel Garcia          : C-PCM Hessian
   Yang Guo               : DLPNO-NEVPT2, CIM, IAO-localization
   Andreas Hansen         : Spin unrestricted coupled pair/coupled cluster methods
   Benjamin Helmich-Paris : CASSCF linear response (MC-RPA)
   Lee Huntington         : MR-EOM, pCC
   Robert Izsak           : Overlap fitted RIJCOSX, COSX-SCS-MP3, EOM
   Christian Kollmar      : KDIIS, OOCD, Brueckner-CCSD(T), CCSD density
   Simone Kossmann        : Meta GGA functionals, TD-DFT gradient, OOMP2, MP2 Hessian
   Martin Krupicka        : AUTO-CI
   Lucas Lang             : DCDCAS
   Dagmar Lenk            : GEPOL surface, SMD
   Dimitrios Liakos       : Extrapolation schemes; parallel MDCI
   Dimitrios Manganas     : ROCIS; embedding schemes
   Dimitrios Pantazis     : SARC Basis sets
   Taras Petrenko         : DFT Hessian,TD-DFT gradient, ASA, ECA, R-Raman, ABS, FL, XAS/XES, NRVS
   Peter Pinski           : DLPNO-MP2, DLPNO-MP2 Gradient
   Christoph Reimann      : Effective Core Potentials
   Marius Retegan         : Local ZFS, SOC
   Christoph Riplinger    : Optimizer, TS searches, QM/MM, DLPNO-CCSD(T), (RO)-DLPNO pert. Triples
   Tobias Risthaus        : Range-separated hybrids, TD-DFT gradient, RPA, STAB
   Michael Roemelt        : Restricted open shell CIS
   Masaaki Saitow         : Open-shell DLPNO
   Barbara Sandhoefer     : DKH picture change effects
   Avijit Sen             : IP-ROCIS
   Kantharuban Sivalingam : CASSCF convergence, NEVPT2, FIC-MRCI
   Bernardo de Souza      : ESD, SOC TD-DFT
   Georgi Stoychev        : AutoAux, RI-MP2 NMR
   Willem Van den Heuvel  : Paramagnetic NMR
   Boris Wezisla          : Elementary symmetry handling
   Frank Wennmohs         : Technical directorship


 We gratefully acknowledge several colleagues who have allowed us to
 interface, adapt or use parts of their codes:
   Stefan Grimme, W. Hujo, H. Kruse,             : VdW corrections, initial TS optimization,
                  C. Bannwarth                     DFT functionals, gCP, sTDA/sTD-DF
   Ed Valeev                                     : LibInt (2-el integral package), F12 methods
   Garnet Chan, S. Sharma, J. Yang, R. Olivares  : DMRG
   Ulf Ekstrom                                   : XCFun DFT Library
   Mihaly Kallay                                 : mrcc  (arbitrary order and MRCC methods)
   Andreas Klamt, Michael Diedenhofen            : otool_cosmo (COSMO solvation model)
   Jiri Pittner, Ondrej Demel                    : Mk-CCSD
   Frank Weinhold                                : gennbo (NPA and NBO analysis)
   Christopher J. Cramer and Donald G. Truhlar   : smd solvation model
   Lars Goerigk                                  : TD-DFT with DH, B97 family of functionals
   V. Asgeirsson, H. Jonsson                     : NEB implementation
   FAccTs GmbH                                   : IRC, NEB, NEB-TS, Multilevel


 Your calculation uses the libint2 library for the computation of 2-el integrals
 For citations please refer to: http://libint.valeyev.net

 This ORCA versions uses:
   CBLAS   interface :  Fast vector & matrix operations
   LAPACKE interface :  Fast linear algebra routines
   SCALAPACK package :  Parallel linear algebra routines


----- Orbital basis set information -----
Your calculation utilizes the basis: 3-21G
   H-Ne       : J. S. Binkley, J. A. Pople and W. J. Hehre, J. Am. Chem. Soc. 102 939 (1980).
   Na-Ar      : M. S. Gordon, J. S. Binkley, J. A. Pople, W. J. Pietro and W.J. Hehre, J. Am. Chem. Soc. 104, 2797 (1983).
   K-Ca, Ga-Kr: K. D. Dobbs and W. J. Hehre, J. Comput. Chem. 7, 359 (1986).
   Sc-Zn      : K. D. Dobbs and W. J. Hehre, J. Comput. Chem. 8, 861 (1987).
   Y-Cd       : K. D. Dobbs and W. J. Hehre, J. Comput. Chem. 8, 880 (1987).

================================================================================
                                        WARNINGS
                       Please study these warnings very carefully!
================================================================================

WARNING: SinglePoint found together with IRC
         Switching on EnGrad - energy plus gradient calculation

INFO   : the flag for use of LIBINT has been found!

================================================================================
                                       INPUT FILE
================================================================================
NAME = input.dat
|  1> !UKS B3LYP 3-21G TightSCF KDIIS SOSCF Freq IRC
|  2> 
|  3> %irc
|  4>   MaxIter 10000000
|  5>   Scale_Init_Displ 0.01
|  6>   Scale_Displ_SD 0.01
|  7>   TolRMSG 5.e-8 # RMS gradient (a.u.)
|  8>   TolMaxG 2.e-8 # Max. element of gradient (a.u.)
|  9> end
| 10> 
| 11> *xyz 0 2
| 12>     C            0.356299825253     1.013243057490    -0.166403618312
| 13>     H           -0.086635603400     0.686580639148    -1.101413887066
| 14>     H           -0.002613359048     1.950166909144     0.240199946630
| 15>     C            1.545351482127     0.508939188583     0.266605917293
| 16>     H            2.044663795160     0.942899322873     1.127490601300
| 17>     C           -1.428026199267    -0.274656937984     0.650421646081
| 18>     H           -0.857947879160    -1.179509965545     0.819655070490
| 19>     H           -1.787676463914     0.254633334095     1.534516198356
| 20>     N            2.154609092859    -0.641092588855    -0.221587032878
| 21>     H            1.792210520259    -1.086660484431    -1.055913933760
| 22>     H            3.095480323942    -0.879398998425     0.059977252876
| 23>     O           -2.327625728243    -0.443483300014    -0.436180972570
| 24>     H           -2.832638360371     0.403185904264    -0.560745555406
| 25> *
| 26> 
| 27>                          ****END OF INPUT****
================================================================================

                     *******************************
                     * Energy+Gradient Calculation *
                     *******************************

---------------------------------
CARTESIAN COORDINATES (ANGSTROEM)
---------------------------------
  C      0.356300    1.013243   -0.166404
  H     -0.086636    0.686581   -1.101414
  H     -0.002613    1.950167    0.240200
  C      1.545351    0.508939    0.266606
  H      2.044664    0.942899    1.127491
  C     -1.428026   -0.274657    0.650422
  H     -0.857948   -1.179510    0.819655
  H     -1.787676    0.254633    1.534516
  N      2.154609   -0.641093   -0.221587
  H      1.792211   -1.086660   -1.055914
  H      3.095480   -0.879399    0.059977
  O     -2.327626   -0.443483   -0.436181
  H     -2.832638    0.403186   -0.560746

----------------------------
CARTESIAN COORDINATES (A.U.)
----------------------------
  NO LB      ZA    FRAG     MASS         X           Y           Z
   0 C     6.0000    0    12.011    0.673309    1.914752   -0.314457
   1 H     1.0000    0     1.008   -0.163718    1.297449   -2.081371
   2 H     1.0000    0     1.008   -0.004939    3.685281    0.453912
   3 C     6.0000    0    12.011    2.920291    0.961756    0.503812
   4 H     1.0000    0     1.008    3.863855    1.781821    2.130648
   5 C     6.0000    0    12.011   -2.698578   -0.519026    1.229119
   6 H     1.0000    0     1.008   -1.621287   -2.228951    1.548924
   7 H     1.0000    0     1.008   -3.378219    0.481187    2.899815
   8 N     7.0000    0    14.007    4.071621   -1.211489   -0.418739
   9 H     1.0000    0     1.008    3.386787   -2.053491   -1.995388
  10 H     1.0000    0     1.008    5.849610   -1.661823    0.113341
  11 O     8.0000    0    15.999   -4.398575   -0.838062   -0.824263
  12 H     1.0000    0     1.008   -5.352911    0.761911   -1.059656

--------------------------------
INTERNAL COORDINATES (ANGSTROEM)
--------------------------------
 C      0   0   0     0.000000000000     0.00000000     0.00000000
 H      1   0   0     1.084962825256     0.00000000     0.00000000
 H      1   2   0     1.082576296012   116.67330558     0.00000000
 C      1   2   3     1.362227401293   121.25340382   198.76521134
 H      4   1   2     1.085705587743   120.36492206   171.32022229
 C      1   2   3     2.347276991041    79.88396114    90.86547759
 H      6   1   2     1.082768786251    96.46996468    96.91800972
 H      6   1   2     1.091384296360   105.44441771   217.14660985
 N      4   1   2     1.390000101420   125.25703318   344.39106798
 H      9   4   1     1.012899231180   119.76394768    10.11098280
 H      9   4   1     1.010597380431   120.35244601   171.45055732
 O      6   1   2     1.420734635289   106.28321571   343.09739269
 H     12   6   1     0.993681455688   108.44711056   283.56115328

---------------------------
INTERNAL COORDINATES (A.U.)
---------------------------
 C      0   0   0     0.000000000000     0.00000000     0.00000000
 H      1   0   0     2.050282605220     0.00000000     0.00000000
 H      1   2   0     2.045772718537   116.67330558     0.00000000
 C      1   2   3     2.574236720568   121.25340382   198.76521134
 H      4   1   2     2.051686222903   120.36492206   171.32022229
 C      1   2   3     4.435710673523    79.88396114    90.86547759
 H      6   1   2     2.046136472373    96.46996468    96.91800972
 H      6   1   2     2.062417426982   105.44441771   217.14660985
 N      4   1   2     2.626719517807   125.25703318   344.39106798
 H      9   4   1     1.914102148190   119.76394768    10.11098280
 H      9   4   1     1.909752280673   120.35244601   171.45055732
 O      6   1   2     2.684799369672   106.28321571   343.09739269
 H     12   6   1     1.877785815607   108.44711056   283.56115328

---------------------
BASIS SET INFORMATION
---------------------
There are 4 groups of distinct atoms

 Group   1 Type C   : 6s3p contracted to 3s2p pattern {321/21}
 Group   2 Type H   : 3s contracted to 2s pattern {21}
 Group   3 Type N   : 6s3p contracted to 3s2p pattern {321/21}
 Group   4 Type O   : 6s3p contracted to 3s2p pattern {321/21}

Atom   0C    basis set group =>   1
Atom   1H    basis set group =>   2
Atom   2H    basis set group =>   2
Atom   3C    basis set group =>   1
Atom   4H    basis set group =>   2
Atom   5C    basis set group =>   1
Atom   6H    basis set group =>   2
Atom   7H    basis set group =>   2
Atom   8N    basis set group =>   3
Atom   9H    basis set group =>   2
Atom  10H    basis set group =>   2
Atom  11O    basis set group =>   4
Atom  12H    basis set group =>   2

Checking for AutoStart:
The File: input.gbw exists
Trying to determine its content:
     ... Fine, the file contains calculation information
     ... Fine, the calculation information was read
     ... Fine, the file contains a basis set
     ... Fine, the basis set was read
     ... Fine, the file contains a geometry
     ... Fine, the geometry was read
     ... Fine, the file contains a set of orbitals
     ... Fine, the orbitals can be read
     => possible old guess file was deleted
     => GBW file was renamed to GES file
     => GES file is set as startup file
     => Guess is set to MORead
     ... now leaving AutoStart

------------------------------------------------------------------------------
                           ORCA GTO INTEGRAL CALCULATION
------------------------------------------------------------------------------

                         BASIS SET STATISTICS AND STARTUP INFO

 # of primitive gaussian shells          ...   69
 # of primitive gaussian functions       ...   99
 # of contracted shells                  ...   41
 # of contracted basis functions         ...   61
 Highest angular momentum                ...    1
 Maximum contraction depth               ...    3
 Integral package used                   ... LIBINT
 Integral threshhold            Thresh   ...  2.500e-11
 Primitive cut-off              TCut     ...  2.500e-12


------------------------------ INTEGRAL EVALUATION ----------------------------


 * One electron integrals 
 Pre-screening matrix                    ... done
 Shell pair data                         ... done (   0.000 sec)

-------------------------------------------------------------------------------
                                 ORCA SCF
-------------------------------------------------------------------------------

------------
SCF SETTINGS
------------
Hamiltonian:
 Density Functional     Method          .... DFT(GTOs)
 Exchange Functional    Exchange        .... B88
   X-Alpha parameter    XAlpha          ....  0.666667
   Becke's b parameter  XBeta           ....  0.004200
 Correlation Functional Correlation     .... LYP
 LDA part of GGA corr.  LDAOpt          .... VWN-5
 Gradients option       PostSCFGGA      .... off
 Hybrid DFT is turned on
   Fraction HF Exchange ScalHFX         ....  0.200000
   Scaling of DF-GGA-X  ScalDFX         ....  0.720000
   Scaling of DF-GGA-C  ScalDFC         ....  0.810000
   Scaling of DF-LDA-C  ScalLDAC        ....  1.000000
   Perturbative correction              ....  0.000000
   Density functional embedding theory  .... OFF
   NL short-range parameter             ....  4.800000


General Settings:
 Integral files         IntName         .... input
 Hartree-Fock type      HFTyp           .... UHF
 Total Charge           Charge          ....    0
 Multiplicity           Mult            ....    2
 Number of Electrons    NEL             ....   41
 Basis Dimension        Dim             ....   61
 Nuclear Repulsion      ENuc            ....    167.9522595196 Eh

Convergence Acceleration:
 DIIS                   CNVDIIS         .... on
   Start iteration      DIISMaxIt       ....     0
   Startup error        DIISStart       ....  1.000000
   # of expansion vecs  DIISMaxEq       ....     5
   Bias factor          DIISBfac        ....   1.050
   Max. coefficient     DIISMaxC        ....  10.000
 Newton-Raphson         CNVNR           .... off
 SOSCF                  CNVSOSCF        .... on
   Start iteration      SOSCFMaxIt      ....   150
   Startup grad/error   SOSCFStart      ....  0.003300
 Level Shifting         CNVShift        .... off
 Zerner damping         CNVZerner       .... off
 Static damping         CNVDamp         .... off
 Fernandez-Rico         CNVRico         .... off

SCF Procedure:
 Maximum # iterations   MaxIter         ....   125
 SCF integral mode      SCFMode         .... Direct
   Integral package                     .... LIBINT
 Reset frequency        DirectResetFreq ....    20
 Integral Threshold     Thresh          ....  2.500e-11 Eh
 Primitive CutOff       TCut            ....  2.500e-12 Eh

Convergence Tolerance:
 Convergence Check Mode ConvCheckMode   .... Total+1el-Energy
 Convergence forced     ConvForced      .... 0
 Energy Change          TolE            ....  1.000e-08 Eh
 1-El. energy change                    ....  1.000e-05 Eh
 Orbital Gradient       TolG            ....  1.000e-05
 Orbital Rotation angle TolX            ....  1.000e-05
 DIIS Error             TolErr          ....  5.000e-07


Diagonalization of the overlap matrix:
Smallest eigenvalue                        ... 1.192e-02
Time for diagonalization                   ...    0.015 sec
Threshold for overlap eigenvalues          ... 1.000e-08
Number of eigenvalues below threshold      ... 0
Time for construction of square roots      ...    0.001 sec
Total time needed                          ...    0.016 sec

---------------------
INITIAL GUESS: MOREAD
---------------------
Guess MOs are being read from file: input.ges
Input Geometry matches current geometry (good)
Input basis set matches current basis set (good)
MOs were renormalized
MOs were reorthogonalized (Cholesky)
                      ------------------
                      INITIAL GUESS DONE (   0.0 sec)
                      ------------------
-------------------
DFT GRID GENERATION
-------------------

General Integration Accuracy     IntAcc      ...  4.340
Radial Grid Type                 RadialGrid  ... Gauss-Chebyshev
Angular Grid (max. acc.)         AngularGrid ... Lebedev-110
Angular grid pruning method      GridPruning ... 3 (G Style)
Weight generation scheme         WeightScheme... Becke
Basis function cutoff            BFCut       ...    1.0000e-11
Integration weight cutoff        WCut        ...    1.0000e-14
Grids for H and He will be reduced by one unit

# of grid points (after initial pruning)     ...  14738 (   0.0 sec)
# of grid points (after weights+screening)   ...  13916 (   0.0 sec)
nearest neighbour list constructed           ...    0.0 sec
Grid point re-assignment to atoms done       ...    0.0 sec
Grid point division into batches done        ...    0.0 sec
Reduced shell lists constructed in    0.1 sec

Total number of grid points                  ...    13916
Total number of batches                      ...      225
Average number of points per batch           ...       61
Average number of grid points per atom       ...     1070
Average number of shells per batch           ...    28.70 (70.00%)
Average number of basis functions per batch  ...    44.29 (72.61%)
Average number of large shells per batch     ...    22.64 (78.89%)
Average number of large basis fcns per batch ...    35.54 (80.25%)
Maximum spatial batch extension              ...  18.99, 20.26, 20.22 au
Average spatial batch extension              ...   3.78,  4.02,  4.05 au

Time for grid setup =    0.093 sec

--------------
SCF ITERATIONS
--------------
ITER       Energy         Delta-E        Max-DP      RMS-DP      [F,P]   Gradient Norm
               ***  Starting incremental Fock matrix formation  ***
                             ****Resetting KDIIS****
                             ****Turning on KDIIS(Cayley)****
                      *** Initiating the SOSCF procedure ***
                           *** Shutting down KDIIS ***
                      *** Re-Reading the Fockian *** 
                      *** Removing any level shift *** 
ITER      Energy       Delta-E        Grad      Rot      Max-DP    RMS-DP
  0   -247.46566144 -247.4656614440  0.000001  0.000001  0.000000  0.000000
               *** Restarting incremental Fock matrix formation ***
                  ***Gradient check signals convergence***
              ***Rediagonalizing the Fockian in SOSCF/NRSCF***

               *****************************************************
               *                     SUCCESS                       *
               *           SCF CONVERGED AFTER   1 CYCLES          *
               *****************************************************

Setting up the final grid:

General Integration Accuracy     IntAcc      ...  4.670
Radial Grid Type                 RadialGrid  ... Gauss-Chebyshev
Angular Grid (max. acc.)         AngularGrid ... Lebedev-302
Angular grid pruning method      GridPruning ... 3 (G Style)
Weight generation scheme         WeightScheme... Becke
Basis function cutoff            BFCut       ...    1.0000e-11
Integration weight cutoff        WCut        ...    1.0000e-14
Grids for H and He will be reduced by one unit

# of grid points (after initial pruning)     ...  58212 (   0.0 sec)
# of grid points (after weights+screening)   ...  54491 (   0.1 sec)
nearest neighbour list constructed           ...    0.0 sec
Grid point re-assignment to atoms done       ...    0.0 sec
Grid point division into batches done        ...    0.2 sec
Reduced shell lists constructed in    0.3 sec

Total number of grid points                  ...    54491
Total number of batches                      ...      857
Average number of points per batch           ...       63
Average number of grid points per atom       ...     4192
Average number of shells per batch           ...    26.19 (63.87%)
Average number of basis functions per batch  ...    40.54 (66.46%)
Average number of large shells per batch     ...    20.20 (77.13%)
Average number of large basis fcns per batch ...    31.77 (78.35%)
Maximum spatial batch extension              ...  17.80, 23.35, 19.50 au
Average spatial batch extension              ...   2.69,  2.68,  2.67 au

Final grid set up in    0.4 sec
Final integration                            ... done (   0.3 sec)
Change in XC energy                          ...    -0.001500777
Integrated number of electrons               ...    41.000066358
Previous integrated no of electrons          ...    40.987321345

----------------
TOTAL SCF ENERGY
----------------

Total Energy       :         -247.46716222 Eh           -6733.92383 eV

Components:
Nuclear Repulsion  :          167.95225952 Eh            4570.21333 eV
Electronic Energy  :         -415.41942174 Eh          -11304.13716 eV
One Electron Energy:         -668.49586327 Eh          -18190.69724 eV
Two Electron Energy:          253.07644153 Eh            6886.56008 eV

Virial components:
Potential Energy   :         -492.87396405 Eh          -13411.78240 eV
Kinetic Energy     :          245.40680183 Eh            6677.85857 eV
Virial Ratio       :            2.00839569


DFT components:
N(Alpha)           :       21.000031646594 electrons
N(Beta)            :       20.000034711732 electrons
N(Total)           :       41.000066358326 electrons
E(X)               :      -26.260203099052 Eh       
E(C)               :       -1.593318841630 Eh       
E(XC)              :      -27.853521940682 Eh       
DFET-embed. en.    :        0.000000000000 Eh       

---------------
SCF CONVERGENCE
---------------

  Last Energy change         ...   -1.5007e-11  Tolerance :   1.0000e-08
  Last MAX-Density change    ...    2.5016e-06  Tolerance :   1.0000e-07
  Last RMS-Density change    ...    1.3132e-07  Tolerance :   5.0000e-09
  Last Orbital Gradient      ...    1.0711e-06  Tolerance :   1.0000e-05
  Last Orbital Rotation      ...    5.7386e-06  Tolerance :   1.0000e-05

             **** THE GBW FILE WAS UPDATED (input.gbw) ****
             **** DENSITY FILE WAS UPDATED (input.scfp.tmp) ****
             **** ENERGY FILE WAS UPDATED (input.en.tmp) ****
----------------------
UHF SPIN CONTAMINATION
----------------------

Warning: in a DFT calculation there is little theoretical justification to 
         calculate <S**2> as in Hartree-Fock theory. We will do it anyways
         but you should keep in mind that the values have only limited relevance

Expectation value of <S**2>     :     0.772238
Ideal value S*(S+1) for S=0.5   :     0.750000
Deviation                       :     0.022238

----------------
ORBITAL ENERGIES
----------------
                 SPIN UP ORBITALS
  NO   OCC          E(Eh)            E(eV) 
   0   1.0000     -19.030493      -517.8460 
   1   1.0000     -14.240374      -387.5003 
   2   1.0000     -10.135789      -275.8088 
   3   1.0000     -10.132252      -275.7126 
   4   1.0000     -10.081523      -274.3322 
   5   1.0000      -1.005509       -27.3613 
   6   1.0000      -0.888197       -24.1691 
   7   1.0000      -0.713899       -19.4262 
   8   1.0000      -0.636099       -17.3091 
   9   1.0000      -0.570886       -15.5346 
  10   1.0000      -0.514946       -14.0124 
  11   1.0000      -0.480875       -13.0853 
  12   1.0000      -0.456174       -12.4131 
  13   1.0000      -0.407857       -11.0983 
  14   1.0000      -0.392656       -10.6847 
  15   1.0000      -0.362326        -9.8594 
  16   1.0000      -0.343199        -9.3389 
  17   1.0000      -0.319300        -8.6886 
  18   1.0000      -0.296735        -8.0746 
  19   1.0000      -0.199566        -5.4305 
  20   1.0000      -0.108058        -2.9404 
  21   0.0000       0.086916         2.3651 
  22   0.0000       0.105422         2.8687 
  23   0.0000       0.112041         3.0488 
  24   0.0000       0.148092         4.0298 
  25   0.0000       0.170583         4.6418 
  26   0.0000       0.197269         5.3680 
  27   0.0000       0.216124         5.8810 
  28   0.0000       0.218293         5.9401 
  29   0.0000       0.234915         6.3924 
  30   0.0000       0.264466         7.1965 
  31   0.0000       0.377029        10.2595 
  32   0.0000       0.407897        11.0994 
  33   0.0000       0.670433        18.2434 
  34   0.0000       0.700354        19.0576 
  35   0.0000       0.743994        20.2451 
  36   0.0000       0.768476        20.9113 
  37   0.0000       0.798765        21.7355 
  38   0.0000       0.821469        22.3533 
  39   0.0000       0.850622        23.1466 
  40   0.0000       0.891212        24.2511 
  41   0.0000       0.920677        25.0529 
  42   0.0000       0.947361        25.7790 
  43   0.0000       0.983347        26.7582 
  44   0.0000       1.028352        27.9829 
  45   0.0000       1.070293        29.1242 
  46   0.0000       1.079381        29.3714 
  47   0.0000       1.109071        30.1794 
  48   0.0000       1.128313        30.7030 
  49   0.0000       1.142664        31.0935 
  50   0.0000       1.283219        34.9182 
  51   0.0000       1.379062        37.5262 
  52   0.0000       1.384858        37.6839 
  53   0.0000       1.514912        41.2229 
  54   0.0000       1.562780        42.5254 
  55   0.0000       1.658053        45.1179 
  56   0.0000       1.719148        46.7804 
  57   0.0000       1.781260        48.4705 
  58   0.0000       2.049163        55.7606 
  59   0.0000       2.472754        67.2871 
  60   0.0000       2.958441        80.5033 

                 SPIN DOWN ORBITALS
  NO   OCC          E(Eh)            E(eV) 
   0   1.0000     -19.027011      -517.7513 
   1   1.0000     -14.238188      -387.4408 
   2   1.0000     -10.127789      -275.5911 
   3   1.0000     -10.124103      -275.4909 
   4   1.0000     -10.083621      -274.3893 
   5   1.0000      -0.996283       -27.1102 
   6   1.0000      -0.881799       -23.9950 
   7   1.0000      -0.710005       -19.3202 
   8   1.0000      -0.614560       -16.7230 
   9   1.0000      -0.567728       -15.4487 
  10   1.0000      -0.513297       -13.9675 
  11   1.0000      -0.472810       -12.8658 
  12   1.0000      -0.453221       -12.3328 
  13   1.0000      -0.401178       -10.9166 
  14   1.0000      -0.389679       -10.6037 
  15   1.0000      -0.354126        -9.6363 
  16   1.0000      -0.323935        -8.8147 
  17   1.0000      -0.302883        -8.2419 
  18   1.0000      -0.281756        -7.6670 
  19   1.0000      -0.181367        -4.9353 
  20   0.0000       0.005276         0.1436 
  21   0.0000       0.103566         2.8182 
  22   0.0000       0.110460         3.0058 
  23   0.0000       0.119913         3.2630 
  24   0.0000       0.149529         4.0689 
  25   0.0000       0.177307         4.8248 
  26   0.0000       0.200525         5.4566 
  27   0.0000       0.217545         5.9197 
  28   0.0000       0.227717         6.1965 
  29   0.0000       0.238398         6.4871 
  30   0.0000       0.278336         7.5739 
  31   0.0000       0.382881        10.4187 
  32   0.0000       0.409350        11.1390 
  33   0.0000       0.674892        18.3647 
  34   0.0000       0.707119        19.2417 
  35   0.0000       0.753536        20.5048 
  36   0.0000       0.788622        21.4595 
  37   0.0000       0.816342        22.2138 
  38   0.0000       0.824832        22.4448 
  39   0.0000       0.859049        23.3759 
  40   0.0000       0.895554        24.3693 
  41   0.0000       0.931211        25.3395 
  42   0.0000       0.948796        25.8181 
  43   0.0000       0.986532        26.8449 
  44   0.0000       1.029873        28.0243 
  45   0.0000       1.074928        29.2503 
  46   0.0000       1.080947        29.4141 
  47   0.0000       1.115729        30.3605 
  48   0.0000       1.129798        30.7434 
  49   0.0000       1.149805        31.2878 
  50   0.0000       1.285926        34.9918 
  51   0.0000       1.380668        37.5699 
  52   0.0000       1.394640        37.9501 
  53   0.0000       1.528720        41.5986 
  54   0.0000       1.575982        42.8847 
  55   0.0000       1.663252        45.2594 
  56   0.0000       1.725219        46.9456 
  57   0.0000       1.784657        48.5630 
  58   0.0000       2.054138        55.8959 
  59   0.0000       2.478294        67.4378 
  60   0.0000       2.966444        80.7211 

                    ********************************
                    * MULLIKEN POPULATION ANALYSIS *
                    ********************************

--------------------------------------------
MULLIKEN ATOMIC CHARGES AND SPIN POPULATIONS
--------------------------------------------
   0 C :   -0.412255   -0.197586
   1 H :    0.175139    0.018795
   2 H :    0.164223    0.010969
   3 C :    0.045784    0.317154
   4 H :    0.181700   -0.017447
   5 C :   -0.164186    0.737651
   6 H :    0.187561   -0.035687
   7 H :    0.145925   -0.022336
   8 N :   -0.729138    0.096716
   9 H :    0.301198   -0.004730
  10 H :    0.298475   -0.004104
  11 O :   -0.539611    0.104268
  12 H :    0.345184   -0.003663
Sum of atomic charges         :   -0.0000000
Sum of atomic spin populations:    1.0000000

-----------------------------------------------------
MULLIKEN REDUCED ORBITAL CHARGES AND SPIN POPULATIONS
-----------------------------------------------------
CHARGE
  0 C s       :     3.351392  s :     3.351392
      pz      :     1.059196  p :     3.060863
      px      :     0.948088
      py      :     1.053579
  1 H s       :     0.824861  s :     0.824861
  2 H s       :     0.835777  s :     0.835777
  3 C s       :     3.178858  s :     3.178858
      pz      :     0.998350  p :     2.775358
      px      :     0.953261
      py      :     0.823747
  4 H s       :     0.818300  s :     0.818300
  5 C s       :     3.342766  s :     3.342766
      pz      :     0.803746  p :     2.821420
      px      :     0.907593
      py      :     1.110081
  6 H s       :     0.812439  s :     0.812439
  7 H s       :     0.854075  s :     0.854075
  8 N s       :     3.615692  s :     3.615692
      pz      :     1.421626  p :     4.113446
      px      :     1.290814
      py      :     1.401005
  9 H s       :     0.698802  s :     0.698802
 10 H s       :     0.701525  s :     0.701525
 11 O s       :     3.908341  s :     3.908341
      pz      :     1.594759  p :     4.631270
      px      :     1.532907
      py      :     1.503604
 12 H s       :     0.654816  s :     0.654816

SPIN
  0 C s       :    -0.025035  s :    -0.025035
      pz      :    -0.053325  p :    -0.172551
      px      :    -0.063667
      py      :    -0.055560
  1 H s       :     0.018795  s :     0.018795
  2 H s       :     0.010969  s :     0.010969
  3 C s       :     0.034723  s :     0.034723
      pz      :     0.109741  p :     0.282431
      px      :     0.081605
      py      :     0.091086
  4 H s       :    -0.017447  s :    -0.017447
  5 C s       :     0.103939  s :     0.103939
      pz      :     0.103332  p :     0.633712
      px      :     0.269197
      py      :     0.261183
  6 H s       :    -0.035687  s :    -0.035687
  7 H s       :    -0.022336  s :    -0.022336
  8 N s       :     0.004888  s :     0.004888
      pz      :     0.036433  p :     0.091828
      px      :     0.017662
      py      :     0.037734
  9 H s       :    -0.004730  s :    -0.004730
 10 H s       :    -0.004104  s :    -0.004104
 11 O s       :     0.002378  s :     0.002378
      pz      :     0.003143  p :     0.101890
      px      :     0.067338
      py      :     0.031408
 12 H s       :    -0.003663  s :    -0.003663


                     *******************************
                     * LOEWDIN POPULATION ANALYSIS *
                     *******************************

-------------------------------------------
LOEWDIN ATOMIC CHARGES AND SPIN POPULATIONS
-------------------------------------------
   0 C :   -0.262380   -0.142775
   1 H :    0.086690    0.016519
   2 H :    0.088140    0.007506
   3 C :   -0.046269    0.273798
   4 H :    0.081877   -0.009442
   5 C :   -0.107520    0.673963
   6 H :    0.077839   -0.019786
   7 H :    0.054468   -0.010379
   8 N :   -0.301011    0.102244
   9 H :    0.188463   -0.002990
  10 H :    0.188175   -0.002413
  11 O :   -0.284284    0.115834
  12 H :    0.235813   -0.002079

----------------------------------------------------
LOEWDIN REDUCED ORBITAL CHARGES AND SPIN POPULATIONS
----------------------------------------------------
CHARGE
  0 C s       :     2.976696  s :     2.976696
      pz      :     1.107529  p :     3.285685
      px      :     1.080551
      py      :     1.097604
  1 H s       :     0.913310  s :     0.913310
  2 H s       :     0.911860  s :     0.911860
  3 C s       :     2.928867  s :     2.928867
      pz      :     1.057559  p :     3.117403
      px      :     1.076526
      py      :     0.983318
  4 H s       :     0.918123  s :     0.918123
  5 C s       :     3.065731  s :     3.065731
      pz      :     0.923308  p :     3.041789
      px      :     0.985622
      py      :     1.132859
  6 H s       :     0.922161  s :     0.922161
  7 H s       :     0.945532  s :     0.945532
  8 N s       :     3.163903  s :     3.163903
      pz      :     1.424160  p :     4.137108
      px      :     1.293722
      py      :     1.419225
  9 H s       :     0.811537  s :     0.811537
 10 H s       :     0.811825  s :     0.811825
 11 O s       :     3.603158  s :     3.603158
      pz      :     1.618546  p :     4.681126
      px      :     1.549545
      py      :     1.513036
 12 H s       :     0.764187  s :     0.764187

SPIN
  0 C s       :    -0.007482  s :    -0.007482
      pz      :    -0.043599  p :    -0.135293
      px      :    -0.046852
      py      :    -0.044842
  1 H s       :     0.016519  s :     0.016519
  2 H s       :     0.007506  s :     0.007506
  3 C s       :     0.012559  s :     0.012559
      pz      :     0.102829  p :     0.261239
      px      :     0.072775
      py      :     0.085635
  4 H s       :    -0.009442  s :    -0.009442
  5 C s       :     0.073823  s :     0.073823
      pz      :     0.096446  p :     0.600140
      px      :     0.260403
      py      :     0.243291
  6 H s       :    -0.019786  s :    -0.019786
  7 H s       :    -0.010379  s :    -0.010379
  8 N s       :     0.003844  s :     0.003844
      pz      :     0.038391  p :     0.098400
      px      :     0.018934
      py      :     0.041074
  9 H s       :    -0.002990  s :    -0.002990
 10 H s       :    -0.002413  s :    -0.002413
 11 O s       :     0.003325  s :     0.003325
      pz      :     0.008888  p :     0.112509
      px      :     0.070305
      py      :     0.033317
 12 H s       :    -0.002079  s :    -0.002079


                      *****************************
                      * MAYER POPULATION ANALYSIS *
                      *****************************

  NA   - Mulliken gross atomic population
  ZA   - Total nuclear charge
  QA   - Mulliken gross atomic charge
  VA   - Mayer's total valence
  BVA  - Mayer's bonded valence
  FA   - Mayer's free valence

  ATOM       NA         ZA         QA         VA         BVA        FA
  0 C      6.4123     6.0000    -0.4123     3.7701     3.7472     0.0228
  1 H      0.8249     1.0000     0.1751     0.9387     0.9383     0.0004
  2 H      0.8358     1.0000     0.1642     0.9382     0.9381     0.0001
  3 C      5.9542     6.0000     0.0458     3.6765     3.6053     0.0712
  4 H      0.8183     1.0000     0.1817     0.9261     0.9258     0.0003
  5 C      6.1642     6.0000    -0.1642     3.5849     3.1496     0.4353
  6 H      0.8124     1.0000     0.1876     0.9281     0.9269     0.0012
  7 H      0.8541     1.0000     0.1459     0.9275     0.9270     0.0004
  8 N      7.7291     7.0000    -0.7291     2.9126     2.9029     0.0097
  9 H      0.6988     1.0000     0.3012     0.8809     0.8809     0.0000
 10 H      0.7015     1.0000     0.2985     0.8819     0.8819     0.0000
 11 O      8.5396     8.0000    -0.5396     1.9619     1.9468     0.0151
 12 H      0.6548     1.0000     0.3452     0.8505     0.8505     0.0000

  Mayer bond orders larger than 0.1
B(  0-C ,  1-H ) :   0.9155 B(  0-C ,  2-H ) :   0.9321 B(  0-C ,  3-C ) :   1.5815 
B(  0-C ,  5-C ) :   0.2143 B(  3-C ,  4-H ) :   0.9229 B(  3-C ,  8-N ) :   1.0261 
B(  5-C ,  6-H ) :   0.9129 B(  5-C ,  7-H ) :   0.8963 B(  5-C , 11-O ) :   1.0218 
B(  8-N ,  9-H ) :   0.8656 B(  8-N , 10-H ) :   0.8699 B( 11-O , 12-H ) :   0.8283 


-------
TIMINGS
-------

Total SCF time: 0 days 0 hours 0 min 1 sec 

Total time                  ....       1.724 sec
Sum of individual times     ....       1.519 sec  ( 88.1%)

Fock matrix formation       ....       1.001 sec  ( 58.1%)
  XC integration            ....       0.520 sec  ( 52.0% of F)
    Basis function eval.    ....       0.164 sec  ( 31.5% of XC)
    Density eval.           ....       0.115 sec  ( 22.2% of XC)
    XC-Functional eval.     ....       0.101 sec  ( 19.4% of XC)
    XC-Potential eval.      ....       0.116 sec  ( 22.3% of XC)
Diagonalization             ....       0.003 sec  (  0.2%)
Density matrix formation    ....       0.000 sec  (  0.0%)
Population analysis         ....       0.007 sec  (  0.4%)
Initial guess               ....       0.003 sec  (  0.1%)
Orbital Transformation      ....       0.000 sec  (  0.0%)
Orbital Orthonormalization  ....       0.002 sec  (  0.1%)
DIIS solution               ....       0.000 sec  (  0.0%)
SOSCF solution              ....       0.001 sec  (  0.0%)
Grid generation             ....       0.504 sec  ( 29.2%)

-------------------------   --------------------
FINAL SINGLE POINT ENERGY      -247.467162221203
-------------------------   --------------------

------------------------------------------------------------------------------
                         ORCA SCF GRADIENT CALCULATION
------------------------------------------------------------------------------

Gradient of the Kohn-Sham DFT energy:
Kohn-Sham wavefunction type      ... UKS
Hartree-Fock exchange scaling    ...    0.200
Number of operators              ...    2
Number of atoms                  ...   13
Basis set dimensions             ...   61
Integral neglect threshold       ... 2.5e-11
Integral primitive cutoff        ... 2.5e-12

Nuclear repulsion gradient       ... done
One Electron Gradient            ... done
Pre-screening matrix             ... done
Starting the two electron gradient:
Two electron gradient done
Exchange-correlation gradient    ... done

------------------
CARTESIAN GRADIENT
------------------

   1   C   :   -0.000096591   -0.000068729   -0.000112247
   2   H   :    0.000005678    0.000072455    0.000149484
   3   H   :    0.000033095   -0.000009345   -0.000018146
   4   C   :    0.000262282   -0.000442621    0.000050951
   5   H   :    0.000025373    0.000039455   -0.000148632
   6   C   :   -0.000180024   -0.000235906    0.000033960
   7   H   :   -0.000024675    0.000190487   -0.000016379
   8   H   :    0.000085591    0.000051282   -0.000210280
   9   N   :   -0.000208576    0.000284932    0.000045331
  10   H   :    0.000036501    0.000010880    0.000139155
  11   H   :   -0.000077062    0.000101459   -0.000084465
  12   O   :    0.000003501    0.000270786    0.000100169
  13   H   :    0.000134909   -0.000265133    0.000071100

Difference to translation invariance:
           :   -0.0000000000    0.0000000000    0.0000000000

Norm of the cartesian gradient     ...    0.0009358335
RMS gradient                       ...    0.0001498533
MAX gradient                       ...    0.0004426215

-------
TIMINGS
-------

Total SCF gradient time            ...        2.209 sec

One electron gradient       ....       0.014 sec  (  0.6%)
Prescreening matrices       ....       0.002 sec  (  0.1%)
Two electron gradient       ....       0.295 sec  ( 13.4%)
XC gradient                 ....       1.775 sec  ( 80.3%)

                            ***************************************
                            *     ORCA property calculations      *
                            ***************************************

                                    ---------------------
                                    Active property flags
                                    ---------------------
   (+) Dipole Moment


------------------------------------------------------------------------------
                       ORCA ELECTRIC PROPERTIES CALCULATION
------------------------------------------------------------------------------

Dipole Moment Calculation                       ... on
Quadrupole Moment Calculation                   ... off
Polarizability Calculation                      ... off
GBWName                                         ... input.gbw
Electron density file                           ... input.scfp.tmp
The origin for moment calculation is the CENTER OF MASS  = ( 0.000112,  0.000244  0.000148)

-------------
DIPOLE MOMENT
-------------
                                X             Y             Z
Electronic contribution:     -0.75675      -0.79408      -0.93134
Nuclear contribution   :      1.25746       1.01333       0.98974
                        -----------------------------------------
Total Dipole Moment    :      0.50071       0.21925       0.05840
                        -----------------------------------------
Magnitude (a.u.)       :      0.54972
Magnitude (Debye)      :      1.39727



--------------------
Rotational spectrum 
--------------------
 
Rotational constants in cm-1:     0.334735     0.066725     0.062348 
Rotational constants in MHz : 10035.102259  2000.364573  1869.156449 

 Dipole components along the rotational axes: 
x,y,z [a.u.] :     0.513497     0.195663     0.015066 
x,y,z [Debye]:     1.305206     0.497335     0.038295 

 

-------------------------------------------------------------------------------
                               ORCA SCF HESSIAN
-------------------------------------------------------------------------------

Hessian of the Kohn-Sham DFT energy:
Kohn-Sham wavefunction type                      ... UKS
Hartree-Fock exchange scaling                    ...    0.200
Number of operators                              ...    2
Number of atoms                                  ...   13
Basis set dimensions                             ...   61
Integral neglect threshold                       ... 2.5e-11
Integral primitive cutoff                        ... 2.5e-12

Setting up DFT Hessian calculations              ... 
Electron density on the grid                     ... found on disk
Electron density on the final grid               ... found on disk
Building xc-kernel on the grid                   ... done   (      0.0 sec)
Building xc-kernel on the final grid             ... done   (      0.1 sec)
                                                     done   (      0.2 sec)

Nuclear repulsion Hessian                        ... done   (      0.0 sec)

----------------------------------------------
Forming right-hand sides of CP-SCF equations     ...
----------------------------------------------
One electron integral derivatives                ... done   (      0.1 sec)
Transforming the overlap derivative matrices     ... done   (      0.0 sec)
Making the Q(x) pseudodensities                  ... done   (      0.0 sec)
Adding the E*S(x)*S(y) terms to the Hessian      ... done   (      0.0 sec)
Calculating energy weighted overlap derivatives  ... done   (      0.0 sec)
Two electron integral derivatives                ... done   (      0.7 sec)
Exchange-correlation integral derivatives        ... done   (      9.8 sec)
tr(F(y)Q(x)) contribution to the Hessian         ... done   (      0.0 sec)
Response fock operator R(S(x))                   ... done   (      2.8 sec)
XC Response fock operator R(S(x))                ... done   (      3.8 sec)
tr(F(y)S(x)) contribution to the Hessian         ... done   (      0.0 sec)
Transforming and finalizing RHSs                 ... done   (      0.0 sec)

----------------------------------------------
Solving the CP-SCF equations                     ...
----------------------------------------------
     CP-SCF ITERATION   0: 
     CP-SCF ITERATION   1:      0.014000032921
     CP-SCF ITERATION   2:      0.005752154547
     CP-SCF ITERATION   3:      0.000535896119
     CP-SCF ITERATION   4:      0.000135775172
     CP-SCF ITERATION   5:      0.000013136194
     CP-SCF ITERATION   6:      0.000002391709
     CP-SCF ITERATION   7:      0.000000156472
     CP-SCF ITERATION   8:      0.000000024537
     CP-SCF ITERATION   9:      0.000000009537

                                                 ... done   (     47.2 sec)
Forming perturbed density Hessian contributions  ... done   (      0.0 sec)
Making the perturbed densities                   ... done   (      0.0 sec)
2nd integral derivative contribs                 ... done   (      2.8 sec)
Exchange-correlation Hessian                     ... done   (     21.3 sec)
Dipol derivatives                                ... done   (      0.2 sec)

Total SCF Hessian time: 0 days 0 hours 1 min 29 sec 

Writing the Hessian file to the disk             ... done


Maximum memory used throughout the entire calculation: 61.6 MB

-----------------------
VIBRATIONAL FREQUENCIES
-----------------------

Scaling factor for frequencies =  1.000000000  (already applied!)

   0:         0.00 cm**-1
   1:         0.00 cm**-1
   2:         0.00 cm**-1
   3:         0.00 cm**-1
   4:         0.00 cm**-1
   5:         0.00 cm**-1
   6:      -373.20 cm**-1 ***imaginary mode***
   7:        46.15 cm**-1
   8:        77.39 cm**-1
   9:       116.71 cm**-1
  10:       200.88 cm**-1
  11:       275.49 cm**-1
  12:       318.53 cm**-1
  13:       445.60 cm**-1
  14:       466.65 cm**-1
  15:       519.57 cm**-1
  16:       722.97 cm**-1
  17:       786.97 cm**-1
  18:       880.21 cm**-1
  19:       947.16 cm**-1
  20:      1003.64 cm**-1
  21:      1040.27 cm**-1
  22:      1046.02 cm**-1
  23:      1099.84 cm**-1
  24:      1294.75 cm**-1
  25:      1338.32 cm**-1
  26:      1375.17 cm**-1
  27:      1504.28 cm**-1
  28:      1518.25 cm**-1
  29:      1627.59 cm**-1
  30:      1700.33 cm**-1
  31:      3074.89 cm**-1
  32:      3161.83 cm**-1
  33:      3176.57 cm**-1
  34:      3237.55 cm**-1
  35:      3252.57 cm**-1
  36:      3485.72 cm**-1
  37:      3541.78 cm**-1
  38:      3661.28 cm**-1


------------
NORMAL MODES
------------

These modes are the Cartesian displacements weighted by the diagonal matrix
M(i,i)=1/sqrt(m[i]) where m[i] is the mass of the displaced atom
Thus, these vectors are normalized but *not* orthogonal

                  0          1          2          3          4          5    
      0       0.000000   0.000000   0.000000   0.000000   0.000000   0.000000
      1       0.000000   0.000000   0.000000   0.000000   0.000000   0.000000
      2       0.000000   0.000000   0.000000   0.000000   0.000000   0.000000
      3       0.000000   0.000000   0.000000   0.000000   0.000000   0.000000
      4       0.000000   0.000000   0.000000   0.000000   0.000000   0.000000
      5       0.000000   0.000000   0.000000   0.000000   0.000000   0.000000
      6       0.000000   0.000000   0.000000   0.000000   0.000000   0.000000
      7       0.000000   0.000000   0.000000   0.000000   0.000000   0.000000
      8       0.000000   0.000000   0.000000   0.000000   0.000000   0.000000
      9       0.000000   0.000000   0.000000   0.000000   0.000000   0.000000
     10       0.000000   0.000000   0.000000   0.000000   0.000000   0.000000
     11       0.000000   0.000000   0.000000   0.000000   0.000000   0.000000
     12       0.000000   0.000000   0.000000   0.000000   0.000000   0.000000
     13       0.000000   0.000000   0.000000   0.000000   0.000000   0.000000
     14       0.000000   0.000000   0.000000   0.000000   0.000000   0.000000
     15       0.000000   0.000000   0.000000   0.000000   0.000000   0.000000
     16       0.000000   0.000000   0.000000   0.000000   0.000000   0.000000
     17       0.000000   0.000000   0.000000   0.000000   0.000000   0.000000
     18       0.000000   0.000000   0.000000   0.000000   0.000000   0.000000
     19       0.000000   0.000000   0.000000   0.000000   0.000000   0.000000
     20       0.000000   0.000000   0.000000   0.000000   0.000000   0.000000
     21       0.000000   0.000000   0.000000   0.000000   0.000000   0.000000
     22       0.000000   0.000000   0.000000   0.000000   0.000000   0.000000
     23       0.000000   0.000000   0.000000   0.000000   0.000000   0.000000
     24       0.000000   0.000000   0.000000   0.000000   0.000000   0.000000
     25       0.000000   0.000000   0.000000   0.000000   0.000000   0.000000
     26       0.000000   0.000000   0.000000   0.000000   0.000000   0.000000
     27       0.000000   0.000000   0.000000   0.000000   0.000000   0.000000
     28       0.000000   0.000000   0.000000   0.000000   0.000000   0.000000
     29       0.000000   0.000000   0.000000   0.000000   0.000000   0.000000
     30       0.000000   0.000000   0.000000   0.000000   0.000000   0.000000
     31       0.000000   0.000000   0.000000   0.000000   0.000000   0.000000
     32       0.000000   0.000000   0.000000   0.000000   0.000000   0.000000
     33       0.000000   0.000000   0.000000   0.000000   0.000000   0.000000
     34       0.000000   0.000000   0.000000   0.000000   0.000000   0.000000
     35       0.000000   0.000000   0.000000   0.000000   0.000000   0.000000
     36       0.000000   0.000000   0.000000   0.000000   0.000000   0.000000
     37       0.000000   0.000000   0.000000   0.000000   0.000000   0.000000
     38       0.000000   0.000000   0.000000   0.000000   0.000000   0.000000
                  6          7          8          9         10         11    
      0       0.399411  -0.004643  -0.063436  -0.124129  -0.015681   0.004257
      1       0.318999   0.131087  -0.164414  -0.078654   0.011070  -0.016666
      2      -0.178309   0.108542   0.068662  -0.029547  -0.017995   0.128022
      3      -0.122281  -0.094226  -0.081858  -0.245869  -0.022334  -0.050954
      4      -0.070520   0.205530  -0.208543  -0.278758   0.002876  -0.022835
      5       0.223890   0.124755   0.092782   0.099548  -0.011428   0.156193
      6       0.162299   0.110170  -0.082606  -0.140771   0.026698   0.089523
      7       0.088865   0.146703  -0.165250  -0.038633   0.043697   0.040197
      8       0.111050   0.174088   0.054364  -0.133011  -0.055216   0.075937
      9       0.068890  -0.023499   0.019948  -0.039873  -0.031151   0.131251
     10       0.025237  -0.007957  -0.049620   0.073848  -0.016538   0.081064
     11      -0.047918   0.001366  -0.010912  -0.096449  -0.000399  -0.052016
     12       0.132621   0.092574   0.030117   0.066017  -0.038244   0.345722
     13       0.022547  -0.095757   0.006800   0.273392  -0.017975   0.248586
     14      -0.075664  -0.021850  -0.045101  -0.258239   0.003577  -0.260729
     15      -0.408673   0.005221  -0.180412   0.030932   0.025153  -0.016179
     16      -0.277357   0.133690   0.087127  -0.163233  -0.021756  -0.004532
     17       0.231239   0.075374   0.124856   0.119395   0.016098  -0.065799
     18      -0.105722   0.076913  -0.375919  -0.004385   0.022573  -0.076361
     19      -0.096539   0.226634   0.023432  -0.214372  -0.031626  -0.040928
     20       0.069399   0.328265   0.440392  -0.041695  -0.019983  -0.041063
     21      -0.396978  -0.226610  -0.303924  -0.040274   0.012176   0.003516
     22      -0.179424   0.237830   0.322090  -0.333603  -0.074598  -0.000233
     23       0.151185  -0.080809  -0.065238   0.189124   0.043738  -0.060098
     24       0.015415  -0.208633   0.172016  -0.082711   0.014433   0.009319
     25      -0.014395  -0.072693   0.082440  -0.027047   0.065212   0.013121
     26       0.010091  -0.079246  -0.107425   0.077216  -0.057092  -0.001661
     27       0.002468  -0.347757   0.161509  -0.192542  -0.014425  -0.447424
     28      -0.030972  -0.007743  -0.014719  -0.191059  -0.149888  -0.451810
     29       0.026223  -0.054125  -0.046956   0.209858   0.085165   0.452250
     30      -0.005677  -0.197412   0.130760   0.034477  -0.382527  -0.020357
     31      -0.054563  -0.172983   0.059596   0.173572  -0.575433  -0.140170
     32       0.039316  -0.200035  -0.002709  -0.135807   0.675089  -0.055897
     33      -0.031142   0.228703   0.036715   0.188032   0.023807  -0.083425
     34      -0.014656  -0.148158   0.016494   0.172846   0.011347  -0.031736
     35      -0.049548  -0.069153  -0.048537  -0.062834   0.006537  -0.021209
     36      -0.097155   0.128614   0.216787   0.273871   0.075977  -0.070932
     37      -0.043646  -0.238699   0.081387   0.244188   0.041056  -0.024772
     38       0.041080  -0.279258  -0.340273   0.073185  -0.003991  -0.028506
                 12         13         14         15         16         17    
      0       0.022201   0.026457   0.079111  -0.009812   0.012961  -0.035807
      1       0.033038   0.013774  -0.121253   0.019339   0.050538   0.018660
      2      -0.021164  -0.078220  -0.042801   0.011896   0.016614   0.008703
      3       0.090750   0.127086   0.308753  -0.062629  -0.242731   0.240349
      4       0.070098   0.098935  -0.466974   0.084523  -0.315417   0.237701
      5      -0.067655  -0.153489  -0.036323   0.016627   0.269852  -0.208162
      6      -0.031520  -0.109947  -0.148016  -0.007890   0.290599   0.336139
      7      -0.006743  -0.102258  -0.058922  -0.016946   0.320991   0.328063
      8       0.022768   0.060735  -0.401716   0.104575  -0.357125  -0.352594
      9      -0.009893  -0.081849   0.081727   0.002438  -0.115181   0.014691
     10       0.008606  -0.073838   0.075326   0.018298  -0.116698  -0.006181
     11       0.023204   0.074656   0.146118  -0.032539   0.098690   0.004701
     12      -0.044833  -0.203294   0.111051  -0.009166   0.301828   0.018737
     13      -0.038719  -0.164462   0.076172   0.001928   0.308753  -0.025607
     14       0.066855   0.192207   0.120383  -0.016301  -0.361189   0.012092
     15       0.035705   0.016682  -0.009638   0.026094   0.022223   0.032135
     16      -0.068486   0.006799  -0.011911  -0.071598  -0.012536   0.007764
     17      -0.018629   0.009173   0.006406  -0.015889  -0.022463   0.017118
     18      -0.188002  -0.035329  -0.069129  -0.375579   0.071304  -0.417957
     19      -0.183820  -0.017179  -0.039524  -0.256118   0.021578  -0.268572
     20       0.126663   0.062076   0.059233   0.346597  -0.030407   0.195768
     21       0.216903   0.032827   0.013528   0.284794   0.171450  -0.305917
     22       0.200935   0.056328   0.064714   0.511565   0.152812  -0.309939
     23      -0.106673  -0.014220  -0.032557  -0.275087  -0.074200   0.100254
     24      -0.033786   0.040282  -0.110163  -0.011423   0.024592   0.010207
     25       0.013253   0.064436   0.065429  -0.013475   0.023474  -0.007447
     26      -0.001481  -0.042740  -0.048593   0.015947  -0.031040  -0.000831
     27      -0.112948  -0.441895  -0.295322   0.094953   0.050630   0.010150
     28      -0.011698  -0.467339   0.361626   0.054925  -0.016817   0.004860
     29       0.046185   0.459925  -0.128224  -0.067164  -0.018066  -0.008874
     30      -0.003198   0.106975  -0.148980  -0.039125   0.056653   0.034018
     31       0.030859   0.127834  -0.230251  -0.029693   0.141988   0.029115
     32      -0.088483  -0.235822  -0.183121   0.097484  -0.046315  -0.043227
     33      -0.042536   0.037284   0.005261   0.020644  -0.006406  -0.010197
     34      -0.015471   0.018083   0.007999   0.022163  -0.000986  -0.007936
     35       0.044084  -0.001449  -0.009037  -0.019908  -0.004357  -0.006367
     36       0.645361  -0.166694  -0.126222  -0.277353   0.013439  -0.026808
     37       0.320332  -0.079563  -0.053805  -0.110053   0.013292  -0.007393
     38      -0.481112   0.178651   0.113579   0.322966   0.011664   0.053652
                 18         19         20         21         22         23    
      0       0.069298   0.002163  -0.042494   0.033168   0.100713  -0.008982
      1       0.023374  -0.056494   0.099176  -0.034660  -0.070366   0.009986
      2      -0.053405  -0.036999   0.036373   0.010838   0.059815  -0.002890
      3      -0.260954   0.242063   0.449194  -0.100432   0.332544   0.078679
      4      -0.178027   0.497867  -0.141686  -0.055644  -0.074998   0.048997
      5       0.186582  -0.348919  -0.127682   0.086782  -0.046391  -0.058852
      6      -0.277432   0.076105  -0.643144   0.191896   0.102282  -0.068424
      7      -0.307460  -0.159009  -0.054360   0.023408  -0.061259  -0.011223
      8       0.376286   0.272428  -0.159964   0.016015   0.006954  -0.006031
      9      -0.024710  -0.024421  -0.020054  -0.003140  -0.012720   0.002306
     10      -0.035002  -0.042119   0.035511  -0.012670  -0.047750   0.001834
     11       0.019518   0.039611   0.045016  -0.031903  -0.076703   0.007502
     12       0.116055   0.282702   0.328824  -0.091064   0.154613   0.054132
     13       0.171315   0.428264  -0.003433  -0.061924  -0.240116   0.005450
     14      -0.169609  -0.381327  -0.134078   0.042440  -0.081036  -0.023589
     15       0.109488  -0.045594  -0.033552  -0.104377   0.021804   0.050839
     16       0.077099  -0.016458  -0.004224   0.023543   0.002578   0.052125
     17      -0.024272   0.002336  -0.034691  -0.115642   0.019450   0.176482
     18      -0.399176   0.069428  -0.084883  -0.422062   0.078930  -0.161157
     19      -0.237502   0.054803  -0.038009  -0.237598   0.047085  -0.172274
     20       0.165186  -0.041565  -0.040157  -0.407567   0.062055  -0.284540
     21      -0.292589   0.024286  -0.014510   0.248513  -0.035264   0.639382
     22      -0.321052   0.030900  -0.030088  -0.111656   0.017306   0.018534
     23       0.089689  -0.000979  -0.007944   0.108685  -0.011543   0.432328
     24      -0.019896  -0.013307   0.027298  -0.031106  -0.134754   0.002513
     25       0.016683   0.023680  -0.087750   0.038901   0.100952  -0.008960
     26       0.010372   0.017530  -0.051066   0.010173  -0.003768  -0.002420
     27       0.020718  -0.039149   0.225130   0.003429   0.308495   0.019483
     28       0.076563   0.156822  -0.259699   0.002724  -0.299212  -0.010603
     29      -0.039501  -0.044571  -0.044200   0.018095   0.030254  -0.009673
     30      -0.029278  -0.030347   0.026781  -0.028765  -0.109869   0.004676
     31       0.008191  -0.067178   0.083036   0.093937   0.613611   0.003120
     32       0.031926  -0.009425   0.118051   0.040161   0.349822   0.004908
     33      -0.026385   0.023483   0.032769   0.111974  -0.019115  -0.056398
     34      -0.013799   0.007259   0.010332   0.025189  -0.004888  -0.023135
     35      -0.004923   0.015896   0.038072   0.128234  -0.023737  -0.115909
     36      -0.018017  -0.004406  -0.041733  -0.260606   0.035867  -0.232752
     37      -0.004978  -0.015598  -0.054952  -0.310181   0.049053  -0.152247
     38      -0.013551  -0.000503  -0.055130  -0.452352   0.088475  -0.339078
                 24         25         26         27         28         29    
      0       0.011195   0.080502   0.001073   0.037033  -0.001019  -0.182921
      1       0.066157  -0.011352  -0.000646  -0.008974  -0.001364   0.122629
      2       0.091283   0.081523   0.002916   0.029900  -0.000250  -0.076923
      3       0.405832   0.329155   0.013788  -0.364023   0.039649   0.251760
      4      -0.214597  -0.152382   0.020318   0.458457  -0.017331  -0.486136
      5      -0.015694   0.022341  -0.011417   0.041679  -0.013799  -0.096671
      6      -0.331845   0.074951  -0.004449  -0.487895   0.026658   0.177834
      7       0.021343  -0.010748   0.007888   0.019490  -0.003151   0.071427
      8      -0.156283   0.046449  -0.023326  -0.471195   0.026477   0.400280
      9      -0.036726  -0.077507  -0.003078   0.094217  -0.011761   0.243209
     10      -0.158590   0.038324  -0.005460  -0.083632   0.006983  -0.168706
     11      -0.179051  -0.035931  -0.003776   0.005045  -0.001452   0.039370
     12      -0.019814  -0.662012   0.003902  -0.244903   0.024305  -0.292529
     13      -0.174677   0.620081  -0.005927   0.261897  -0.023956   0.382268
     14      -0.193372   0.004483  -0.008253   0.029897  -0.007905   0.097724
     15      -0.000830   0.012561   0.082671  -0.001942   0.049383  -0.013407
     16       0.004732   0.006715  -0.081302  -0.000824   0.001814  -0.014180
     17      -0.004822   0.001722   0.026624   0.005952   0.078937   0.007240
     18      -0.000441  -0.012976   0.271503  -0.004330  -0.104309   0.024226
     19       0.005364  -0.009463   0.074233  -0.011391  -0.216723   0.004421
     20      -0.000766   0.013606   0.282894  -0.064880  -0.692444  -0.033892
     21       0.028309  -0.006150  -0.277872  -0.029405  -0.441090  -0.004842
     22       0.004089  -0.012496   0.028836   0.033655   0.348443   0.037105
     23       0.008602   0.008721  -0.193217  -0.029583  -0.362353  -0.024994
     24       0.036991   0.009451   0.000921  -0.029095   0.003587  -0.049753
     25       0.088333  -0.051286   0.003684   0.015422  -0.000516   0.029431
     26       0.112707  -0.039402   0.002554  -0.009581   0.001695  -0.012924
     27      -0.352910   0.032094  -0.010733  -0.012578  -0.001546  -0.008411
     28       0.488085  -0.083112   0.009968  -0.006088  -0.001695  -0.011816
     29       0.057388  -0.037237   0.004141   0.002931   0.003421   0.002174
     30       0.015221   0.004750  -0.000455  -0.029956   0.004008  -0.047350
     31      -0.297126  -0.024997  -0.005023   0.163081  -0.020258   0.265329
     32      -0.187762  -0.001679  -0.002096   0.105390  -0.015208   0.167375
     33       0.002900  -0.004502  -0.034264   0.001684  -0.003184   0.003147
     34      -0.001474  -0.001035   0.072745  -0.001555  -0.009844   0.003796
     35      -0.000828  -0.004766   0.016884   0.001581   0.005866   0.002167
     36       0.009700  -0.005043  -0.425839   0.009853   0.016849  -0.017895
     37       0.008464   0.000806  -0.294582   0.004560   0.009515  -0.013812
     38       0.038144   0.002715  -0.659185   0.006502   0.024837  -0.005599
                 30         31         32         33         34         35    
      0       0.005614  -0.000362   0.048796  -0.007158   0.000866   0.005215
      1      -0.006154   0.000930  -0.022519  -0.006851  -0.011267  -0.071576
      2       0.000490   0.000613   0.040016  -0.015918  -0.009779  -0.062970
      3       0.006660  -0.003041  -0.332546   0.074863   0.036548   0.235169
      4      -0.007308  -0.001212  -0.252585   0.054213   0.025141   0.156126
      5      -0.002952   0.001887  -0.688099   0.156355   0.070970   0.465399
      6       0.033119   0.005174  -0.189382  -0.020658  -0.044851  -0.277602
      7      -0.005439  -0.009292   0.495536   0.051559   0.105026   0.693466
      8       0.021719  -0.005515   0.229025   0.023181   0.047107   0.299494
      9      -0.021360   0.000314  -0.000401   0.040698  -0.000983  -0.007096
     10       0.026374   0.000159   0.006285   0.032035  -0.001024  -0.006223
     11      -0.002533   0.000200   0.006489   0.065667  -0.001845  -0.011884
     12       0.047986  -0.000828  -0.053955  -0.452070   0.011666   0.073000
     13      -0.049459  -0.001063  -0.047895  -0.391804   0.009780   0.059734
     14      -0.000678  -0.001928  -0.091649  -0.772971   0.018962   0.120075
     15       0.001483   0.004205   0.000315  -0.000706  -0.052730   0.008244
     16       0.001006  -0.013902   0.000274  -0.000330   0.078601  -0.011892
     17       0.000320  -0.063845  -0.000383   0.000396   0.013362  -0.002838
     18      -0.001314   0.227649   0.000826   0.000577   0.488442  -0.071492
     19      -0.001910  -0.326006  -0.002291   0.000400  -0.756614   0.114193
     20      -0.002619   0.034430   0.000965  -0.000070   0.133029  -0.020573
     21      -0.003786  -0.294074  -0.002182   0.000806   0.121275  -0.023354
     22      -0.001222   0.478759   0.001740  -0.000533  -0.171774   0.030741
     23      -0.000890   0.721453   0.005570  -0.001398  -0.299939   0.054413
     24       0.049291   0.000006  -0.000114  -0.001099  -0.000013  -0.000040
     25      -0.074538   0.000026   0.000108  -0.001443   0.000045   0.000823
     26      -0.037022   0.000005  -0.000200  -0.002031   0.000037   0.000655
     27      -0.594308  -0.000484   0.003335   0.007717   0.000488  -0.003660
     28       0.387736  -0.000260  -0.002344   0.007411   0.000699   0.002545
     29       0.010702   0.000001   0.002930   0.018809  -0.000444  -0.001819
     30       0.003637   0.000536   0.000145   0.012058   0.000161  -0.004489
     31       0.464783   0.000028  -0.001830   0.002293  -0.000128   0.000614
     32       0.513059   0.000166  -0.001473   0.006990  -0.000213  -0.001190
     33      -0.000579   0.000822  -0.000188   0.000041   0.002933  -0.000492
     34      -0.000388   0.001163  -0.000210   0.000049  -0.004116   0.000599
     35      -0.000242  -0.000224  -0.000243  -0.000018   0.000791   0.000048
     36       0.002210   0.002402  -0.002080   0.000066  -0.030402   0.004958
     37       0.001832  -0.007108   0.001668  -0.000424   0.062446  -0.009640
     38       0.000485   0.004061  -0.000211   0.000108  -0.003247   0.000097
                  36         37         38    
      0      -0.000368  -0.000440   0.000535
      1       0.000143   0.000448  -0.000272
      2      -0.000130   0.000256   0.000375
      3       0.001895   0.001919   0.001501
      4       0.000755  -0.000156  -0.001368
      5       0.001036  -0.001463  -0.000098
      6       0.001053   0.000494  -0.000492
      7      -0.000684  -0.002076   0.000933
      8      -0.000874   0.000249   0.000044
      9       0.000143  -0.001058  -0.001744
     10      -0.000267   0.001584  -0.001497
     11       0.000009  -0.000846  -0.002574
     12      -0.000112   0.004252   0.009813
     13       0.000078   0.004108   0.011077
     14      -0.000117   0.007314   0.017499
     15       0.002983   0.000199   0.000042
     16      -0.007930   0.000202  -0.000070
     17      -0.003501   0.000140   0.000003
     18      -0.029517   0.000411  -0.000372
     19       0.050000  -0.000813   0.000764
     20      -0.004022   0.000186  -0.000162
     21      -0.013244  -0.000616  -0.000114
     22       0.016535  -0.000477   0.000142
     23       0.021528   0.000452   0.000114
     24       0.000163   0.021279  -0.067153
     25      -0.000166  -0.036962  -0.005770
     26      -0.000266  -0.031391  -0.051770
     27       0.002432   0.293337   0.212898
     28       0.002995   0.343267   0.280407
     29       0.006061   0.632670   0.511141
     30      -0.005720  -0.577854   0.723752
     31       0.001337   0.144148  -0.189965
     32      -0.001647  -0.195357   0.217050
     33       0.033374  -0.000457   0.000013
     34      -0.050963   0.000399  -0.000001
     35       0.010574  -0.000241  -0.000000
     36      -0.521635   0.005092  -0.000134
     37       0.836159  -0.007330   0.000122
     38      -0.142938   0.001340  -0.000028


-----------
IR SPECTRUM
-----------

 Mode    freq (cm**-1)   T**2         TX         TY         TZ
-------------------------------------------------------------------
   7:        46.15    4.832147  ( -1.649961  -0.299542  -1.421285)
   8:        77.39    0.859944  (  0.764801  -0.284400  -0.440615)
   9:       116.71    0.169104  ( -0.240201   0.317880   0.101782)
  10:       200.88  195.909581  (  0.500127 -10.741953   8.959347)
  11:       275.49   35.821121  ( -1.376434  -5.311691   2.390082)
  12:       318.53  113.005564  (  8.522093   3.741249  -5.136395)
  13:       445.60  107.625401  ( -6.082189  -6.221714   5.650013)
  14:       466.65    6.808700  ( -2.484493   0.369354   0.706803)
  15:       519.57   74.083689  ( -7.278327  -0.120387   4.592946)
  16:       722.97   15.374663  (  2.883269   2.354824  -1.231352)
  17:       786.97   37.050751  (  5.512907   1.100598  -2.333944)
  18:       880.21   19.341130  (  4.001912  -1.127527   1.433358)
  19:       947.16   30.081007  (  3.158709   3.017372  -3.316479)
  20:      1003.64   38.193837  ( -5.888177   1.198576  -1.444515)
  21:      1040.27  150.325986  (-10.215638  -2.520448  -6.293971)
  22:      1046.02   64.716717  (  7.978371  -0.543712   0.875605)
  23:      1099.84   13.173680  (  3.361016   1.314978   0.384819)
  24:      1294.75   41.610871  (  5.512558  -2.574535  -2.143443)
  25:      1338.32   22.827131  ( -3.585420   3.101951   0.591435)
  26:      1375.17   29.268444  ( -2.433412  -1.226970  -4.673488)
  27:      1504.28    8.521049  (  2.655641  -0.980480  -0.712235)
  28:      1518.25    8.715376  (  2.559119   0.833681   1.212956)
  29:      1627.59   75.125948  (  7.508708  -4.270422   0.713268)
  30:      1700.33   84.834127  ( -5.945260   5.927213   3.788951)
  31:      3074.89   36.809257  (  0.731273  -1.541093  -5.822330)
  32:      3161.83    6.486235  ( -0.247851  -0.571754   2.469393)
  33:      3176.57   10.471874  (  1.500126   1.535222   2.421691)
  34:      3237.55   21.230357  ( -2.765325   3.512388   1.116451)
  35:      3252.57   20.134047  (  0.327194  -3.252494  -3.073804)
  36:      3485.72    5.808655  ( -2.276326  -0.172816  -0.772742)
  37:      3541.78   37.565385  ( -5.308134   2.534623   1.721855)
  38:      3661.28   18.881202  (  3.685869   0.159286   2.295692)

The first frequency considered to be a vibration is 7
The total number of vibrations considered is 32


--------------------------
THERMOCHEMISTRY AT 298.15K
--------------------------

Temperature         ... 298.15 K
Pressure            ... 1.00 atm
Total Mass          ... 74.10 AMU

Throughout the following assumptions are being made:
  (1) The electronic state is orbitally nondegenerate
      but the spin degeneracy is treated
  (2) There are no thermally accessible electronically excited states
  (3) Hindered rotations indicated by low frequency modes are not
      treated as such but are treated as vibrations and this may
      cause some error
  (4) All equations used are the standard statistical mechanics
      equations for an ideal gas
  (5) All vibrations are strictly harmonic

freq.      46.15  E(vib)   ...       0.53 
freq.      77.39  E(vib)   ...       0.49 
freq.     116.71  E(vib)   ...       0.44 
freq.     200.88  E(vib)   ...       0.35 
freq.     275.49  E(vib)   ...       0.28 
freq.     318.53  E(vib)   ...       0.25 
freq.     445.60  E(vib)   ...       0.17 
freq.     466.65  E(vib)   ...       0.16 
freq.     519.57  E(vib)   ...       0.13 
freq.     722.97  E(vib)   ...       0.07 
freq.     786.97  E(vib)   ...       0.05 
freq.     880.21  E(vib)   ...       0.04 
freq.     947.16  E(vib)   ...       0.03 
freq.    1003.64  E(vib)   ...       0.02 
freq.    1040.27  E(vib)   ...       0.02 
freq.    1046.02  E(vib)   ...       0.02 
freq.    1099.84  E(vib)   ...       0.02 
freq.    1294.75  E(vib)   ...       0.01 
freq.    1338.32  E(vib)   ...       0.01 
freq.    1375.17  E(vib)   ...       0.01 
freq.    1504.28  E(vib)   ...       0.00 
freq.    1518.25  E(vib)   ...       0.00 
freq.    1627.59  E(vib)   ...       0.00 
freq.    1700.33  E(vib)   ...       0.00 
freq.    3074.89  E(vib)   ...       0.00 
freq.    3161.83  E(vib)   ...       0.00 
freq.    3176.57  E(vib)   ...       0.00 
freq.    3237.55  E(vib)   ...       0.00 
freq.    3252.57  E(vib)   ...       0.00 
freq.    3485.72  E(vib)   ...       0.00 
freq.    3541.78  E(vib)   ...       0.00 
freq.    3661.28  E(vib)   ...       0.00 

------------
INNER ENERGY
------------

The inner energy is: U= E(el) + E(ZPE) + E(vib) + E(rot) + E(trans)
    E(el)   - is the total energy from the electronic structure calculation
              = E(kin-el) + E(nuc-el) + E(el-el) + E(nuc-nuc)
    E(ZPE)  - the the zero temperature vibrational energy from the frequency calculation
    E(vib)  - the the finite temperature correction to E(ZPE) due to population
              of excited vibrational states
    E(rot)  - is the rotational thermal energy
    E(trans)- is the translational thermal energy

Summary of contributions to the inner energy U:
Electronic energy                ...   -247.46716222 Eh
Zero point energy                ...      0.10694843 Eh      67.11 kcal/mol
Thermal vibrational correction   ...      0.00491780 Eh       3.09 kcal/mol
Thermal rotational correction    ...      0.00141627 Eh       0.89 kcal/mol
Thermal translational correction ...      0.00141627 Eh       0.89 kcal/mol
-----------------------------------------------------------------------
Total thermal energy                   -247.35246345 Eh


Summary of corrections to the electronic energy:
(perhaps to be used in another calculation)
Total thermal correction                  0.00775035 Eh       4.86 kcal/mol
Non-thermal (ZPE) correction              0.10694843 Eh      67.11 kcal/mol
-----------------------------------------------------------------------
Total correction                          0.11469877 Eh      71.97 kcal/mol


--------
ENTHALPY
--------

The enthalpy is H = U + kB*T
                kB is Boltzmann's constant
Total free energy                 ...   -247.35246345 Eh 
Thermal Enthalpy correction       ...      0.00094421 Eh       0.59 kcal/mol
-----------------------------------------------------------------------
Total Enthalpy                    ...   -247.35151924 Eh


Note: Rotational entropy computed according to Herzberg 
Infrared and Raman Spectra, Chapter V,1, Van Nostrand Reinhold, 1945 
Point Group:  C1, Symmetry Number:   1  
Rotational constants in cm-1:     0.334735     0.066725     0.062348 

Vibrational entropy computed according to the QRRHO of S. Grimme
Chem.Eur.J. 2012 18 9955


-------
ENTROPY
-------

The entropy contributions are T*S = T*(S(el)+S(vib)+S(rot)+S(trans))
     S(el)   - electronic entropy
     S(vib)  - vibrational entropy
     S(rot)  - rotational entropy
     S(trans)- translational entropy
The entropies will be listed as mutliplied by the temperature to get
units of energy

Electronic entropy                ...      0.00065446 Eh      0.41 kcal/mol
Vibrational entropy               ...      0.00873278 Eh      5.48 kcal/mol
Rotational entropy                ...      0.01261557 Eh      7.92 kcal/mol
Translational entropy             ...      0.01844677 Eh     11.58 kcal/mol
-----------------------------------------------------------------------
Final entropy term                ...      0.04044956 Eh     25.38 kcal/mol


-------------------
GIBBS FREE ENTHALPY
-------------------

The Gibbs free enthalpy is G = H - T*S

Total enthalpy                    ...   -247.35151924 Eh 
Total entropy correction          ...     -0.04044956 Eh    -25.38 kcal/mol
-----------------------------------------------------------------------
Final Gibbs free enthalpy         ...   -247.39196880 Eh

For completeness - the Gibbs free enthalpy minus the electronic energy
G-E(el)                           ...      0.07519342 Eh     47.18 kcal/mol




------------------------------------------------------------------------------- 
                    Intrinsic Reaction Coordinate Calculation                  
------------------------------------------------------------------------------- 

System:
Nr. of atoms                        .... 13
Algorithm: SD (steepest descent step) plus correction
Settings:
Max. no of cycles        MaxIter    .... 10000000
Direction                           .... Forward and backward
Initial displacement Hessian type   .... Read
Hessian Filename                    .... input.hess
Following Hessian mode              .... 0
Initial displacement type           .... Length
Coordinate system following type    .... Cartesian
Length of steepest descent step     .... 0.010 bohr
Do parabolic fit 
  if SD step is uphill              .... YES
Do Correction to SD step            .... YES
Scaling for length of correction
  compared to SD step               .... 0.333
Do parabolic fit to SD correction   .... YES
Only interpolate for parabolic fit  .... YES
Do update to length of
  SD step and correction            .... YES
Convergence Tolerances:
  Max. Gradient            TolMAXG  ....  2.0000e-08 Eh/bohr
  RMS Gradient             TolRMSG  ....  5.0000e-08 Eh/bohr
Storing full IRC trajectory in      .... input_IRC_Full.trj
Storing forward trajectory in       .... input_IRC_F.trj
Storing backward trajectory in      .... input_IRC_B.trj


 ...good, the file input.hess exists
Reading the hessian file           ...... done

         *************************************************************
         *                          FORWARD IRC                      *
         *************************************************************

Iteration    E(Eh)      dE(kcal/mol)  max(|G|)   RMS(G) 
Convergence thresholds                0.000000  0.000000            
    0      -247.467165   -0.001986    0.000457  0.000159
    1      -247.467166   -0.000361    0.000322  0.000121
    2      -247.467167   -0.000386    0.000339  0.000105
    3      -247.467168   -0.000862    0.000485  0.000121
    4      -247.467169   -0.000448    0.000449  0.000113
    5      -247.467170   -0.000556    0.000517  0.000127
    6      -247.467170   -0.000569    0.000538  0.000133
    7      -247.467171   -0.000624    0.000565  0.000140
    8      -247.467173   -0.000674    0.000592  0.000147
    9      -247.467174   -0.000723    0.000621  0.000155
   10      -247.467175   -0.000772    0.000650  0.000163
   11      -247.467176   -0.000820    0.000679  0.000171
   12      -247.467178   -0.000868    0.000708  0.000180
   13      -247.467179   -0.000915    0.000738  0.000188
   14      -247.467181   -0.000962    0.000768  0.000196
   15      -247.467182   -0.001009    0.000797  0.000205
   16      -247.467184   -0.001054    0.000827  0.000213
   17      -247.467186   -0.001100    0.000857  0.000222
   18      -247.467187   -0.001145    0.000886  0.000230
   19      -247.467189   -0.001189    0.000916  0.000238
   20      -247.467191   -0.001234    0.000945  0.000247
   21      -247.467193   -0.001277    0.000974  0.000255
   22      -247.467195   -0.001321    0.001003  0.000264
   23      -247.467198   -0.001364    0.001031  0.000272
   24      -247.467200   -0.001406    0.001060  0.000280
   25      -247.467202   -0.001448    0.001088  0.000288
   26      -247.467205   -0.001490    0.001116  0.000296
   27      -247.467207   -0.001532    0.001144  0.000304
   28      -247.467209   -0.001573    0.001171  0.000312
   29      -247.467212   -0.001613    0.001198  0.000320
   30      -247.467215   -0.001654    0.001225  0.000328
   31      -247.467217   -0.001694    0.001252  0.000336
   32      -247.467220   -0.001733    0.001278  0.000344
   33      -247.467223   -0.001772    0.001304  0.000352
   34      -247.467226   -0.001811    0.001330  0.000359
   35      -247.467229   -0.001850    0.001355  0.000367
   36      -247.467232   -0.001888    0.001380  0.000375
   37      -247.467235   -0.001925    0.001408  0.000382
   38      -247.467238   -0.001959    0.001426  0.000389
   39      -247.467241   -0.001999    0.001453  0.000397
   40      -247.467244   -0.002035    0.001476  0.000404
   41      -247.467248   -0.002071    0.001501  0.000411
   42      -247.467251   -0.002107    0.001524  0.000418
   43      -247.467255   -0.002143    0.001548  0.000425
   44      -247.467258   -0.002178    0.001571  0.000432
   45      -247.467262   -0.002212    0.001594  0.000439
   46      -247.467265   -0.002247    0.001616  0.000446
   47      -247.467269   -0.002281    0.001638  0.000453
   48      -247.467272   -0.002315    0.001660  0.000460
   49      -247.467276   -0.002348    0.001681  0.000466
   50      -247.467280   -0.002381    0.001703  0.000473
   51      -247.467284   -0.002414    0.001723  0.000479
   52      -247.467288   -0.002446    0.001744  0.000486
   53      -247.467292   -0.002478    0.001764  0.000492
   54      -247.467296   -0.002510    0.001784  0.000499
   55      -247.467300   -0.002541    0.001804  0.000505
   56      -247.467304   -0.002572    0.001823  0.000511
   57      -247.467308   -0.002603    0.001842  0.000517
   58      -247.467312   -0.002634    0.001861  0.000523
   59      -247.467316   -0.002664    0.001879  0.000529
   60      -247.467321   -0.002693    0.001898  0.000535
   61      -247.467325   -0.002723    0.001915  0.000541
   62      -247.467329   -0.002752    0.001933  0.000547
   63      -247.467334   -0.002781    0.001950  0.000553
   64      -247.467338   -0.002809    0.001967  0.000558
   65      -247.467343   -0.002837    0.001984  0.000564
   66      -247.467347   -0.002861    0.001999  0.000569
   67      -247.467352   -0.002907    0.002041  0.000577
   68      -247.467357   -0.002915    0.002031  0.000580
   69      -247.467361   -0.002943    0.002045  0.000585
   70      -247.467366   -0.002988    0.002087  0.000593
   71      -247.467371   -0.002994    0.002075  0.000596
   72      -247.467376   -0.003026    0.002090  0.000601
   73      -247.467381   -0.003051    0.002107  0.000607
   74      -247.467385   -0.003076    0.002120  0.000612
   75      -247.467390   -0.003102    0.002135  0.000617
   76      -247.467395   -0.003126    0.002149  0.000622
   77      -247.467400   -0.003151    0.002163  0.000627
   78      -247.467405   -0.003175    0.002176  0.000631
   79      -247.467411   -0.003199    0.002189  0.000636
   80      -247.467416   -0.003222    0.002202  0.000641
   81      -247.467421   -0.003245    0.002215  0.000646
   82      -247.467426   -0.003268    0.002227  0.000650
   83      -247.467431   -0.003291    0.002239  0.000655
   84      -247.467437   -0.003314    0.002251  0.000659
   85      -247.467442   -0.003336    0.002262  0.000664
   86      -247.467447   -0.003358    0.002274  0.000668
   87      -247.467453   -0.003379    0.002285  0.000672
   88      -247.467458   -0.003401    0.002296  0.000677
   89      -247.467464   -0.003422    0.002306  0.000681
   90      -247.467469   -0.003442    0.002317  0.000685
   91      -247.467475   -0.003463    0.002327  0.000689
   92      -247.467480   -0.003483    0.002337  0.000693
   93      -247.467486   -0.003503    0.002347  0.000697
   94      -247.467491   -0.003524    0.002356  0.000701
   95      -247.467497   -0.003542    0.002368  0.000705
   96      -247.467503   -0.003563    0.002370  0.000708
   97      -247.467508   -0.003582    0.002393  0.000713
   98      -247.467514   -0.003596    0.002387  0.000716
   99      -247.467520   -0.003620    0.002402  0.000720
  100      -247.467526   -0.003638    0.002400  0.000723
  101      -247.467531   -0.003657    0.002434  0.000728
  102      -247.467537   -0.003667    0.002415  0.000730
  103      -247.467543   -0.003693    0.002436  0.000735
  104      -247.467549   -0.003704    0.002434  0.000737
  105      -247.467555   -0.003727    0.002445  0.000741
  106      -247.467561   -0.003742    0.002457  0.000745
  107      -247.467567   -0.003758    0.002460  0.000748
  108      -247.467573   -0.003775    0.002479  0.000752
  109      -247.467579   -0.003785    0.002470  0.000754
  110      -247.467585   -0.003810    0.002473  0.000757
  111      -247.467591   -0.003822    0.002502  0.000761
  112      -247.467597   -0.003831    0.002480  0.000763
  113      -247.467603   -0.003857    0.002498  0.000767
  114      -247.467610   -0.003864    0.002505  0.000770
  115      -247.467616   -0.003879    0.002503  0.000772
  116      -247.467622   -0.003895    0.002511  0.000775
  117      -247.467628   -0.003909    0.002514  0.000778
  118      -247.467634   -0.003923    0.002520  0.000781
  119      -247.467641   -0.003937    0.002523  0.000783
  120      -247.467647   -0.003950    0.002528  0.000786
  121      -247.467653   -0.003964    0.002532  0.000789
  122      -247.467660   -0.003977    0.002536  0.000791
  123      -247.467666   -0.003990    0.002540  0.000794
  124      -247.467672   -0.004002    0.002544  0.000797
  125      -247.467679   -0.004015    0.002547  0.000799
  126      -247.467685   -0.004027    0.002550  0.000801
  127      -247.467692   -0.004039    0.002553  0.000804
  128      -247.467698   -0.004051    0.002556  0.000806
  129      -247.467705   -0.004063    0.002559  0.000809
  130      -247.467711   -0.004074    0.002562  0.000811
  131      -247.467718   -0.004086    0.002564  0.000813
  132      -247.467724   -0.004097    0.002567  0.000815
  133      -247.467731   -0.004108    0.002569  0.000817
  134      -247.467737   -0.004118    0.002571  0.000820
  135      -247.467744   -0.004129    0.002572  0.000822
  136      -247.467750   -0.004139    0.002574  0.000824
  137      -247.467757   -0.004149    0.002576  0.000826
  138      -247.467764   -0.004160    0.002577  0.000828
  139      -247.467770   -0.004169    0.002578  0.000830
  140      -247.467777   -0.004179    0.002579  0.000832
  141      -247.467784   -0.004188    0.002580  0.000833
  142      -247.467790   -0.004198    0.002581  0.000835
  143      -247.467797   -0.004207    0.002582  0.000837
  144      -247.467804   -0.004216    0.002582  0.000839
  145      -247.467811   -0.004224    0.002583  0.000841
  146      -247.467817   -0.004233    0.002583  0.000842
  147      -247.467824   -0.004241    0.002583  0.000844
  148      -247.467831   -0.004250    0.002583  0.000846
  149      -247.467838   -0.004258    0.002583  0.000847
  150      -247.467844   -0.004266    0.002582  0.000849
  151      -247.467851   -0.004273    0.002582  0.000850
  152      -247.467858   -0.004281    0.002582  0.000852
  153      -247.467865   -0.004291    0.002582  0.000853
  154      -247.467872   -0.004292    0.002571  0.000854
  155      -247.467879   -0.004305    0.002584  0.000856
  156      -247.467885   -0.004311    0.002575  0.000857
  157      -247.467892   -0.004313    0.002571  0.000859
  158      -247.467899   -0.004325    0.002577  0.000860
  159      -247.467906   -0.004332    0.002572  0.000861
  160      -247.467913   -0.004332    0.002565  0.000862
  161      -247.467920   -0.004344    0.002574  0.000864
  162      -247.467927   -0.004350    0.002566  0.000865
  163      -247.467934   -0.004351    0.002560  0.000866
  164      -247.467941   -0.004364    0.002568  0.000868
  165      -247.467948   -0.004364    0.002551  0.000868
  166      -247.467955   -0.004370    0.002562  0.000870
  167      -247.467962   -0.004379    0.002556  0.000871
  168      -247.467969   -0.004378    0.002548  0.000871
  169      -247.467976   -0.004392    0.002557  0.000873
  170      -247.467983   -0.004390    0.002550  0.000873
  171      -247.467990   -0.004395    0.002554  0.000875
  172      -247.467997   -0.004404    0.002558  0.000876
  173      -247.468004   -0.004402    0.002562  0.000876
  174      -247.468011   -0.004416    0.002565  0.000878
  175      -247.468018   -0.004414    0.002569  0.000878
  176      -247.468025   -0.004418    0.002572  0.000879
  177      -247.468032   -0.004426    0.002575  0.000880
  178      -247.468039   -0.004423    0.002579  0.000880
  179      -247.468046   -0.004437    0.002582  0.000881
  180      -247.468053   -0.004433    0.002586  0.000882
  181      -247.468060   -0.004437    0.002588  0.000883
  182      -247.468067   -0.004445    0.002591  0.000883
  183      -247.468074   -0.004445    0.002594  0.000884
  184      -247.468081   -0.004445    0.002597  0.000884
  185      -247.468088   -0.004457    0.002600  0.000885
  186      -247.468095   -0.004454    0.002603  0.000886
  187      -247.468103   -0.004456    0.002605  0.000886
  188      -247.468110   -0.004464    0.002608  0.000887
  189      -247.468117   -0.004463    0.002611  0.000887
  190      -247.468124   -0.004466    0.002614  0.000888
  191      -247.468131   -0.004469    0.002616  0.000888
