
    -----------------------------------------------------------------------
          Psi4: An Open-Source Ab Initio Electronic Structure Package
                               Psi4 1.2.1 release

                         Git: Rev {HEAD} 406f4de 


    R. M. Parrish, L. A. Burns, D. G. A. Smith, A. C. Simmonett,
    A. E. DePrince III, E. G. Hohenstein, U. Bozkaya, A. Yu. Sokolov,
    R. Di Remigio, R. M. Richard, J. F. Gonthier, A. M. James,
    H. R. McAlexander, A. Kumar, M. Saitow, X. Wang, B. P. Pritchard,
    P. Verma, H. F. Schaefer III, K. Patkowski, R. A. King, E. F. Valeev,
    F. A. Evangelista, J. M. Turney, T. D. Crawford, and C. D. Sherrill,
    J. Chem. Theory Comput. 13(7) pp 3185--3197 (2017).
    (doi: 10.1021/acs.jctc.7b00174)


                         Additional Contributions by
    P. Kraus, H. Kruse, M. H. Lechner, M. C. Schieber, and R. A. Shaw

    -----------------------------------------------------------------------


    Psi4 started on: Thursday, 14 March 2019 09:09AM

    Process ID: 4631
    Host:       localhost.localdomain
    PSIDATADIR: /root/psi4conda/share/psi4
    Memory:     500.0 MiB
    Threads:    1
    
  ==> Input File <==

--------------------------------------------------------------------------
molecule{
0 1
    C            0.055542535503    -0.303938266973    -0.190765730666
    O           -1.037385259856    -0.463524517665    -0.891725102032
    H           -0.939245150220    -2.519616213151     0.982364389928
    H            0.825503080982    -2.626757521264     1.044026143246
    H            0.699416495259     2.976165263834    -1.373222718994
    C            1.008961958530     1.956579903918    -1.146883414419
    H            1.133913856481     1.391548222579    -2.075689206332
    H            1.949200052733     1.979227644088    -0.596201432594
    O            0.010867805668     1.355630820841    -0.327096587898
    H           -0.865113473736     0.868654164682    -0.876854213181
    C            0.031547925705    -0.612939668607     1.283904195818
    H           -0.091566509057    -2.383589230479     2.533494190388
    H            1.016425396521    -0.548284178046    -0.678564980399
    C           -0.047419489333    -2.128679854358     1.473952098635
    H            0.925022092710    -0.203100143894     1.762689736844
    H           -0.847871572757    -0.126349296173     1.711379564523 
}

set{
   basis 6-311++G(d,p)
   freeze_core True
   normal_modes_write True
}


set_num_threads(16)
frequencies('m06-2x')
--------------------------------------------------------------------------
  Threads set to 16 by Python driver.
gradient() will perform analytic gradient computation.

*** tstart() called on localhost.localdomain
*** at Thu Mar 14 09:09:49 2019

   => Loading Basis Set <=

    Name: 6-311++G(D,P)
    Role: ORBITAL
    Keyword: BASIS
    atoms 1, 6, 11, 14               entry C          line   119 file /root/psi4conda/share/psi4/basis/6-311ppg_d_p_.gbs 
    atoms 2, 9                       entry O          line   161 file /root/psi4conda/share/psi4/basis/6-311ppg_d_p_.gbs 
    atoms 3-5, 7-8, 10, 12-13, 15-16 entry H          line    42 file /root/psi4conda/share/psi4/basis/6-311ppg_d_p_.gbs 


         ---------------------------------------------------------
                                   SCF
            by Justin Turney, Rob Parrish, Andy Simmonett
                             and Daniel Smith
                              RKS Reference
                       16 Threads,    500 MiB Core
         ---------------------------------------------------------

  ==> Geometry <==

    Molecular point group: c1
    Full point group: C1

    Geometry (in Angstrom), charge = 0, multiplicity = 1:

       Center              X                  Y                   Z               Mass       
    ------------   -----------------  -----------------  -----------------  -----------------
         C            0.055542535503    -0.303938266973    -0.190765730666    12.000000000000
         O           -1.037385259856    -0.463524517665    -0.891725102032    15.994914619560
         H           -0.939245150220    -2.519616213151     0.982364389928     1.007825032070
         H            0.825503080982    -2.626757521264     1.044026143246     1.007825032070
         H            0.699416495259     2.976165263834    -1.373222718994     1.007825032070
         C            1.008961958530     1.956579903918    -1.146883414419    12.000000000000
         H            1.133913856481     1.391548222579    -2.075689206332     1.007825032070
         H            1.949200052733     1.979227644088    -0.596201432594     1.007825032070
         O            0.010867805668     1.355630820841    -0.327096587898    15.994914619560
         H           -0.865113473736     0.868654164682    -0.876854213181     1.007825032070
         C            0.031547925705    -0.612939668607     1.283904195818    12.000000000000
         H           -0.091566509057    -2.383589230479     2.533494190388     1.007825032070
         H            1.016425396521    -0.548284178046    -0.678564980399     1.007825032070
         C           -0.047419489333    -2.128679854358     1.473952098635    12.000000000000
         H            0.925022092710    -0.203100143894     1.762689736844     1.007825032070
         H           -0.847871572757    -0.126349296173     1.711379564523     1.007825032070

  Running in c1 symmetry.

  Rotational constants: A =      0.24413  B =      0.06480  C =      0.05685 [cm^-1]
  Rotational constants: A =   7318.68563  B =   1942.78687  C =   1704.46048 [MHz]
  Nuclear repulsion =  260.976803605554323

  Charge       = 0
  Multiplicity = 1
  Electrons    = 50
  Nalpha       = 25
  Nbeta        = 25

  ==> Algorithm <==

  SCF Algorithm Type is DF.
  DIIS enabled.
  MOM disabled.
  Fractional occupation disabled.
  Guess Type is SAD.
  Energy threshold   = 1.00e-08
  Density threshold  = 1.00e-08
  Integral threshold = 0.00e+00

  ==> Primary Basis <==

  Basis Set: 6-311++G(D,P)
    Blend: 6-311++G(D,P)
    Number of shells: 110
    Number of basis function: 202
    Number of Cartesian functions: 208
    Spherical Harmonics?: true
    Max angular momentum: 2

  ==> DFT Potential <==

   => Composite Functional: M06-2X <= 

    Hybrid M06-2X Meta-GGA XC Functional

    Y. Zhao and D. G. Truhlar,  Theor. Chem. Acc., 120, 215, 2008


    Deriv               =              1
    GGA                 =           TRUE
    Meta                =           TRUE

    Exchange Hybrid     =           TRUE
    MP2 Hybrid          =          FALSE

   => Exchange Functionals <=

    1.0000   XC_HYB_MGGA_X_M06_2X

   => Exact (HF) Exchange <=

    0.5400               HF 

   => Correlation Functionals <=

    1.0000   XC_MGGA_C_M06_2X

   => Molecular Quadrature <=

    Radial Scheme       =       TREUTLER
    Pruning Scheme      =           FLAT
    Nuclear Scheme      =       TREUTLER

    BS radius alpha     =              1
    Pruning alpha       =              1
    Radial Points       =             75
    Spherical Points    =            302
    Total Points        =         362400
    Total Blocks        =           2711
    Max Points          =            256
    Max Functions       =            194

   => Loading Basis Set <=

    Name: (6-311++G(D,P) AUX)
    Role: JKFIT
    Keyword: DF_BASIS_SCF
    atoms 1, 6, 11, 14               entry C          line   162 file /root/psi4conda/share/psi4/basis/aug-cc-pvtz-jkfit.gbs 
    atoms 2, 9                       entry O          line   286 file /root/psi4conda/share/psi4/basis/aug-cc-pvtz-jkfit.gbs 
    atoms 3-5, 7-8, 10, 12-13, 15-16 entry H          line    70 file /root/psi4conda/share/psi4/basis/aug-cc-pvtz-jkfit.gbs 

  ==> Pre-Iterations <==

   -------------------------------------------------------
    Irrep   Nso     Nmo     Nalpha   Nbeta   Ndocc  Nsocc
   -------------------------------------------------------
     A        202     202       0       0       0       0
   -------------------------------------------------------
    Total     202     202      25      25      25       0
   -------------------------------------------------------

  ==> Integral Setup <==

  DFHelper Memory: AOs need 0.407 [GiB]; user supplied 0.366 [GiB]. Turning off in-core AOs.

  ==> MemDFJK: Density-Fitted J/K Matrices <==

    J tasked:                   Yes
    K tasked:                   Yes
    wK tasked:                   No
    OpenMP threads:              16
    Memory (MB):                375
    Algorithm:                 Disk
    Schwarz Cutoff:           1E-12
    Mask sparsity (%):       5.2005
    Fitting Condition:        1E-12

   => Auxiliary Basis Set <=

  Basis Set: (6-311++G(D,P) AUX)
    Blend: AUG-CC-PVTZ-JKFIT
    Number of shells: 320
    Number of basis function: 1084
    Number of Cartesian functions: 1336
    Spherical Harmonics?: true
    Max angular momentum: 4

  Minimum eigenvalue in the overlap matrix is 2.9530590924E-05.
  Using Symmetric Orthogonalization.

  SCF Guess: Superposition of Atomic Densities via on-the-fly atomic UHF.

  ==> Iterations <==

                           Total Energy        Delta E     RMS |[F,P]|

   @DF-RKS iter   0:  -310.11376607488262   -3.10114e+02   8.13675e-02 
   @DF-RKS iter   1:  -308.61750240314194    1.49626e+00   1.05743e-02 
   @DF-RKS iter   2:  -308.59019041406299    2.73120e-02   1.27799e-02 DIIS
   @DF-RKS iter   3:  -308.75853381334667   -1.68343e-01   2.58510e-03 DIIS
   @DF-RKS iter   4:  -308.76370011895534   -5.16631e-03   8.96164e-04 DIIS
   @DF-RKS iter   5:  -308.76461061580608   -9.10497e-04   2.56640e-04 DIIS
   @DF-RKS iter   6:  -308.76467401856746   -6.34028e-05   1.02771e-04 DIIS
   @DF-RKS iter   7:  -308.76468655572495   -1.25372e-05   1.62752e-05 DIIS
   @DF-RKS iter   8:  -308.76468713049258   -5.74768e-07   6.57925e-06 DIIS
   @DF-RKS iter   9:  -308.76468720227092   -7.17783e-08   1.48865e-06 DIIS
   @DF-RKS iter  10:  -308.76468720835521   -6.08429e-09   3.64232e-07 DIIS
   @DF-RKS iter  11:  -308.76468720879615   -4.40934e-10   1.38986e-07 DIIS
   @DF-RKS iter  12:  -308.76468720885316   -5.70139e-11   5.77221e-08 DIIS
   @DF-RKS iter  13:  -308.76468720886123   -8.07177e-12   1.12707e-08 DIIS
   @DF-RKS iter  14:  -308.76468720886174   -5.11591e-13   3.63942e-09 DIIS

  ==> Post-Iterations <==

    Orbital Energies [Eh]
    ---------------------

    Doubly Occupied:                                                      

       1A    -19.675236     2A    -19.571873     3A    -10.649815  
       4A    -10.606659     5A    -10.538179     6A    -10.528296  
       7A     -1.214269     8A     -1.098383     9A     -0.880974  
      10A     -0.812308    11A     -0.749644    12A     -0.667855  
      13A     -0.627840    14A     -0.567325    15A     -0.560684  
      16A     -0.532885    17A     -0.502963    18A     -0.474884  
      19A     -0.465819    20A     -0.446119    21A     -0.427675  
      22A     -0.411021    23A     -0.407770    24A     -0.340926  
      25A     -0.313452  

    Virtual:                                                              

      26A     -0.007321    27A      0.007787    28A      0.014456  
      29A      0.019565    30A      0.032228    31A      0.036832  
      32A      0.042960    33A      0.052074    34A      0.061771  
      35A      0.067797    36A      0.071900    37A      0.072427  
      38A      0.093741    39A      0.103828    40A      0.107828  
      41A      0.120534    42A      0.125013    43A      0.131025  
      44A      0.139666    45A      0.144432    46A      0.149731  
      47A      0.153235    48A      0.156630    49A      0.161490  
      50A      0.170669    51A      0.179999    52A      0.191424  
      53A      0.208375    54A      0.213460    55A      0.217642  
      56A      0.236875    57A      0.245139    58A      0.245200  
      59A      0.254613    60A      0.257209    61A      0.282997  
      62A      0.284873    63A      0.300662    64A      0.304589  
      65A      0.323573    66A      0.332413    67A      0.334776  
      68A      0.346276    69A      0.357131    70A      0.369129  
      71A      0.371033    72A      0.411945    73A      0.450590  
      74A      0.454796    75A      0.469231    76A      0.478360  
      77A      0.481393    78A      0.496431    79A      0.541254  
      80A      0.551415    81A      0.567951    82A      0.608597  
      83A      0.623304    84A      0.661406    85A      0.668445  
      86A      0.686242    87A      0.699824    88A      0.701618  
      89A      0.717092    90A      0.723488    91A      0.728301  
      92A      0.730081    93A      0.756525    94A      0.767954  
      95A      0.791456    96A      0.819170    97A      0.920664  
      98A      0.947689    99A      0.968565   100A      1.017205  
     101A      1.050248   102A      1.085498   103A      1.102170  
     104A      1.127390   105A      1.207259   106A      1.234358  
     107A      1.241411   108A      1.261156   109A      1.280186  
     110A      1.309973   111A      1.371025   112A      1.391002  
     113A      1.414319   114A      1.473180   115A      1.496410  
     116A      1.518559   117A      1.526368   118A      1.566798  
     119A      1.573968   120A      1.594639   121A      1.596907  
     122A      1.613217   123A      1.648495   124A      1.660570  
     125A      1.666581   126A      1.679561   127A      1.695001  
     128A      1.734704   129A      1.737890   130A      1.745595  
     131A      1.775431   132A      1.775911   133A      1.827704  
     134A      1.862034   135A      1.907838   136A      1.933190  
     137A      1.953095   138A      1.971573   139A      2.044703  
     140A      2.073778   141A      2.122163   142A      2.147263  
     143A      2.172165   144A      2.177459   145A      2.224297  
     146A      2.268368   147A      2.287421   148A      2.380662  
     149A      2.405905   150A      2.457336   151A      2.507662  
     152A      2.521403   153A      2.531606   154A      2.556976  
     155A      2.566044   156A      2.599139   157A      2.616285  
     158A      2.631450   159A      2.646452   160A      2.666162  
     161A      2.689656   162A      2.715138   163A      2.738540  
     164A      2.785973   165A      2.810496   166A      2.858033  
     167A      2.879118   168A      2.926833   169A      2.961840  
     170A      2.981588   171A      3.024143   172A      3.102175  
     173A      3.145512   174A      3.201869   175A      3.236580  
     176A      3.292683   177A      3.433826   178A      3.490397  
     179A      3.591429   180A      3.746946   181A      3.814999  
     182A      3.840520   183A      3.849802   184A      3.867260  
     185A      3.895045   186A      3.938104   187A      4.031817  
     188A      4.118765   189A      4.251627   190A      4.311923  
     191A      5.232657   192A      5.278703   193A      5.330257  
     194A      5.351462   195A      5.647723   196A      5.807124  
     197A     23.873977   198A     23.970699   199A     23.980310  
     200A     24.062410   201A     50.006832   202A     50.141775  

    Final Occupation by Irrep:
              A 
    DOCC [    25 ]

  Energy converged.

  @DF-RKS Final Energy:  -308.76468720886174

   => Energetics <=

    Nuclear Repulsion Energy =            260.9768036055543234
    One-Electron Energy =                -936.4430892173871825
    Two-Electron Energy =                 387.2166176007180525
    DFT Exchange-Correlation Energy =     -20.5150191977469518
    Empirical Dispersion Energy =           0.0000000000000000
    VV10 Nonlocal Energy =                  0.0000000000000000
    Total Energy =                       -308.7646872088617442



Properties will be evaluated at   0.000000,   0.000000,   0.000000 [a0]

Properties computed using the SCF density matrix

  Nuclear Dipole Moment: [e a0]
     X:     3.5628      Y:    -1.1133      Z:     2.2754

  Electronic Dipole Moment: [e a0]
     X:    -2.3625      Y:     1.8206      Z:    -2.0847

  Dipole Moment: [e a0]
     X:     1.2003      Y:     0.7073      Z:     0.1907     Total:     1.4062

  Dipole Moment: [D]
     X:     3.0507      Y:     1.7979      Z:     0.4847     Total:     3.5741


*** tstop() called on localhost.localdomain at Thu Mar 14 09:10:06 2019
Module time:
	user time   =     245.56 seconds =       4.09 minutes
	system time =       7.56 seconds =       0.13 minutes
	total time  =         17 seconds =       0.28 minutes
Total time:
	user time   =     245.56 seconds =       4.09 minutes
	system time =       7.56 seconds =       0.13 minutes
	total time  =         17 seconds =       0.28 minutes

*** tstart() called on localhost.localdomain
*** at Thu Mar 14 09:10:06 2019


         ------------------------------------------------------------
                                   SCF GRAD                          
                          Rob Parrish, Justin Turney,                
                       Andy Simmonett, and Alex Sokolov              
         ------------------------------------------------------------

  ==> Geometry <==

    Molecular point group: c1
    Full point group: C1

    Geometry (in Angstrom), charge = 0, multiplicity = 1:

       Center              X                  Y                   Z               Mass       
    ------------   -----------------  -----------------  -----------------  -----------------
         C            0.055542535503    -0.303938266973    -0.190765730666    12.000000000000
         O           -1.037385259856    -0.463524517665    -0.891725102032    15.994914619560
         H           -0.939245150220    -2.519616213151     0.982364389928     1.007825032070
         H            0.825503080982    -2.626757521264     1.044026143246     1.007825032070
         H            0.699416495259     2.976165263834    -1.373222718994     1.007825032070
         C            1.008961958530     1.956579903918    -1.146883414419    12.000000000000
         H            1.133913856481     1.391548222579    -2.075689206332     1.007825032070
         H            1.949200052733     1.979227644088    -0.596201432594     1.007825032070
         O            0.010867805668     1.355630820841    -0.327096587898    15.994914619560
         H           -0.865113473736     0.868654164682    -0.876854213181     1.007825032070
         C            0.031547925705    -0.612939668607     1.283904195818    12.000000000000
         H           -0.091566509057    -2.383589230479     2.533494190388     1.007825032070
         H            1.016425396521    -0.548284178046    -0.678564980399     1.007825032070
         C           -0.047419489333    -2.128679854358     1.473952098635    12.000000000000
         H            0.925022092710    -0.203100143894     1.762689736844     1.007825032070
         H           -0.847871572757    -0.126349296173     1.711379564523     1.007825032070

  Nuclear repulsion =  260.976803605554323

  ==> Basis Set <==

  Basis Set: 6-311++G(D,P)
    Blend: 6-311++G(D,P)
    Number of shells: 110
    Number of basis function: 202
    Number of Cartesian functions: 208
    Spherical Harmonics?: true
    Max angular momentum: 2

  ==> DFJKGrad: Density-Fitted SCF Gradients <==

    Gradient:                    1
    J tasked:                  Yes
    K tasked:                  Yes
    wK tasked:                  No
    OpenMP threads:             16
    Integrals threads:          16
    Memory (MB):               375
    Schwarz Cutoff:          0E+00
    Fitting Condition:       1E-12

   => Auxiliary Basis Set <=

  Basis Set: (6-311++G(D,P) AUX)
    Blend: AUG-CC-PVTZ-JKFIT
    Number of shells: 320
    Number of basis function: 1084
    Number of Cartesian functions: 1336
    Spherical Harmonics?: true
    Max angular momentum: 4

  ==> DFT Potential <==

   => Composite Functional: M06-2X <= 

    Hybrid M06-2X Meta-GGA XC Functional

    Y. Zhao and D. G. Truhlar,  Theor. Chem. Acc., 120, 215, 2008


    Deriv               =              1
    GGA                 =           TRUE
    Meta                =           TRUE

    Exchange Hybrid     =           TRUE
    MP2 Hybrid          =          FALSE

   => Exchange Functionals <=

    1.0000   XC_HYB_MGGA_X_M06_2X

   => Exact (HF) Exchange <=

    0.5400               HF 

   => Correlation Functionals <=

    1.0000   XC_MGGA_C_M06_2X

   => Molecular Quadrature <=

    Radial Scheme       =       TREUTLER
    Pruning Scheme      =           FLAT
    Nuclear Scheme      =       TREUTLER

    BS radius alpha     =              1
    Pruning alpha       =              1
    Radial Points       =             75
    Spherical Points    =            302
    Total Points        =         362400
    Total Blocks        =           2711
    Max Points          =            256
    Max Functions       =            194


  -Total Gradient:
     Atom            X                  Y                   Z
    ------   -----------------  -----------------  -----------------
       1       -0.000022740560    -0.000212312663     0.000031989564
       2        0.000097342332    -0.000018278666     0.000034546225
       3        0.000019260750    -0.000013395047     0.000004681295
       4        0.000021795775     0.000006867992     0.000010774275
       5       -0.000031907355     0.000000971953    -0.000010401976
       6       -0.000014510663    -0.000009910850     0.000011937417
       7       -0.000009301975     0.000002727093    -0.000002770607
       8       -0.000016600912     0.000015871535    -0.000002575922
       9       -0.000057197129     0.000090131878    -0.000058915884
      10       -0.000032334598     0.000095384606    -0.000020862074
      11        0.000020118068     0.000034337814     0.000010160699
      12        0.000014451054     0.000007059876     0.000011702628
      13       -0.000000461051    -0.000002339913    -0.000001060893
      14        0.000009344495    -0.000004327012     0.000009202848
      15       -0.000020758908     0.000027297000     0.000007089123
      16       -0.000032725529    -0.000021604665    -0.000021852207


*** tstop() called on localhost.localdomain at Thu Mar 14 09:10:10 2019
Module time:
	user time   =      58.98 seconds =       0.98 minutes
	system time =       1.95 seconds =       0.03 minutes
	total time  =          4 seconds =       0.07 minutes
Total time:
	user time   =     304.56 seconds =       5.08 minutes
	system time =       9.51 seconds =       0.16 minutes
	total time  =         21 seconds =       0.35 minutes

  Based on options and gradient (rms=1.01E-04), recommend projecting translations and projecting rotations.
hessian() will perform frequency computation by finite difference of analytic gradients.

-------------------------------------------------------------

  Using finite-differences of gradients to determine vibrational frequencies and 
  normal modes.  Resulting frequencies are only valid at stationary points.
	Generating geometries for use with 3-point formula.
	Displacement size will be 5.00e-03.
	Number of atoms is 16.
	Number of irreps is 1.
	Number of SALCS is 42.
	Translations projected? 1. Rotations projected? 1.
	Index of salcs per irrep:
	 1 :  0  1  2  3  4  5  6  7  8  9  10  11  12  13  14  15  16  17  18  19  20  21  22  23  24  25  26  27  28  29  30  31  32  33  34  35  36  37  38  39  40  41 
	Number of SALC's per irrep:
		 Irrep 1: 42
	Number of geometries (including reference) is 85.
	Number of displacements per irrep:
	  Irrep 1: 84

  //>>>>>>>>>>>>>>>>>>>>>>>>>>>>>>>>>>>//
  //    Loading displacement 1 of 85   //
  //<<<<<<<<<<<<<<<<<<<<<<<<<<<<<<<<<<<//
gradient() will perform analytic gradient computation.

*** tstart() called on localhost.localdomain
*** at Thu Mar 14 09:10:10 2019

   => Loading Basis Set <=

    Name: 6-311++G(D,P)
    Role: ORBITAL
    Keyword: BASIS
    atoms 1, 6, 11, 14               entry C          line   119 file /root/psi4conda/share/psi4/basis/6-311ppg_d_p_.gbs 
    atoms 2, 9                       entry O          line   161 file /root/psi4conda/share/psi4/basis/6-311ppg_d_p_.gbs 
    atoms 3-5, 7-8, 10, 12-13, 15-16 entry H          line    42 file /root/psi4conda/share/psi4/basis/6-311ppg_d_p_.gbs 


         ---------------------------------------------------------
                                   SCF
            by Justin Turney, Rob Parrish, Andy Simmonett
                             and Daniel Smith
                              RKS Reference
                       16 Threads,    500 MiB Core
         ---------------------------------------------------------

  ==> Geometry <==

    Molecular point group: c1
    Full point group: C1

    Geometry (in Angstrom), charge = 0, multiplicity = 1:

       Center              X                  Y                   Z               Mass       
    ------------   -----------------  -----------------  -----------------  -----------------
         C            0.054839322604    -0.303937661015    -0.190762076517    12.000000000000
         O           -1.037229199519    -0.463560488466    -0.891759370439    15.994914619560
         H           -0.939094118836    -2.519638876340     0.982344984853     1.007825032070
         H            0.825655128377    -2.626727046563     1.044069990643     1.007825032070
         H            0.699486745249     2.976178588904    -1.373214355944     1.007825032070
         C            1.009054675390     1.956603742376    -1.146858418029    12.000000000000
         H            1.134056455989     1.391570659108    -2.075656646395     1.007825032070
         H            1.949272539397     1.979282659571    -0.596143177242     1.007825032070
         O            0.010949393820     1.355629335771    -0.327103704306    15.994914619560
         H           -0.864997796704     0.868623430099    -0.876889737363     1.007825032070
         C            0.031631207784    -0.612931619440     1.283908708074    12.000000000000
         H           -0.091474621997    -2.383577949138     2.533504130380     1.007825032070
         H            1.016576424135    -0.548257524551    -0.678525856683     1.007825032070
         C           -0.047297608161    -2.128673115933     1.473962195410    12.000000000000
         H            0.925076113601    -0.203062714644     1.762723704869     1.007825032070
         H           -0.847818026221    -0.126365191215     1.711350159048     1.007825032070

  Running in c1 symmetry.

  Rotational constants: A =      0.24413  B =      0.06481  C =      0.05685 [cm^-1]
  Rotational constants: A =   7318.85115  B =   1942.81329  C =   1704.44381 [MHz]
  Nuclear repulsion =  260.985064818423155

  Charge       = 0
  Multiplicity = 1
  Electrons    = 50
  Nalpha       = 25
  Nbeta        = 25

  ==> Algorithm <==

  SCF Algorithm Type is DF.
  DIIS enabled.
  MOM disabled.
  Fractional occupation disabled.
  Guess Type is SAD.
  Energy threshold   = 1.00e-08
  Density threshold  = 1.00e-08
  Integral threshold = 0.00e+00

  ==> Primary Basis <==

  Basis Set: 6-311++G(D,P)
    Blend: 6-311++G(D,P)
    Number of shells: 110
    Number of basis function: 202
    Number of Cartesian functions: 208
    Spherical Harmonics?: true
    Max angular momentum: 2

  ==> DFT Potential <==

   => Composite Functional: M06-2X <= 

    Hybrid M06-2X Meta-GGA XC Functional

    Y. Zhao and D. G. Truhlar,  Theor. Chem. Acc., 120, 215, 2008


    Deriv               =              1
    GGA                 =           TRUE
    Meta                =           TRUE

    Exchange Hybrid     =           TRUE
    MP2 Hybrid          =          FALSE

   => Exchange Functionals <=

    1.0000   XC_HYB_MGGA_X_M06_2X

   => Exact (HF) Exchange <=

    0.5400               HF 

   => Correlation Functionals <=

    1.0000   XC_MGGA_C_M06_2X

   => Molecular Quadrature <=

    Radial Scheme       =       TREUTLER
    Pruning Scheme      =           FLAT
    Nuclear Scheme      =       TREUTLER

    BS radius alpha     =              1
    Pruning alpha       =              1
    Radial Points       =             75
    Spherical Points    =            302
    Total Points        =         362400
    Total Blocks        =           2713
    Max Points          =            256
    Max Functions       =            194

   => Loading Basis Set <=

    Name: (6-311++G(D,P) AUX)
    Role: JKFIT
    Keyword: DF_BASIS_SCF
    atoms 1, 6, 11, 14               entry C          line   162 file /root/psi4conda/share/psi4/basis/aug-cc-pvtz-jkfit.gbs 
    atoms 2, 9                       entry O          line   286 file /root/psi4conda/share/psi4/basis/aug-cc-pvtz-jkfit.gbs 
    atoms 3-5, 7-8, 10, 12-13, 15-16 entry H          line    70 file /root/psi4conda/share/psi4/basis/aug-cc-pvtz-jkfit.gbs 

  ==> Pre-Iterations <==

   -------------------------------------------------------
    Irrep   Nso     Nmo     Nalpha   Nbeta   Ndocc  Nsocc
   -------------------------------------------------------
     A        202     202       0       0       0       0
   -------------------------------------------------------
    Total     202     202      25      25      25       0
   -------------------------------------------------------

  ==> Integral Setup <==

  DFHelper Memory: AOs need 0.407 [GiB]; user supplied 0.366 [GiB]. Turning off in-core AOs.

  ==> MemDFJK: Density-Fitted J/K Matrices <==

    J tasked:                   Yes
    K tasked:                   Yes
    wK tasked:                   No
    OpenMP threads:              16
    Memory (MB):                375
    Algorithm:                 Disk
    Schwarz Cutoff:           1E-12
    Mask sparsity (%):       5.2005
    Fitting Condition:        1E-12

   => Auxiliary Basis Set <=

  Basis Set: (6-311++G(D,P) AUX)
    Blend: AUG-CC-PVTZ-JKFIT
    Number of shells: 320
    Number of basis function: 1084
    Number of Cartesian functions: 1336
    Spherical Harmonics?: true
    Max angular momentum: 4

  Minimum eigenvalue in the overlap matrix is 2.9538648480E-05.
  Using Symmetric Orthogonalization.

  SCF Guess: Superposition of Atomic Densities via on-the-fly atomic UHF.

  ==> Iterations <==

                           Total Energy        Delta E     RMS |[F,P]|

   @DF-RKS iter   0:  -310.13888725339592   -3.10139e+02   8.07904e-02 
   @DF-RKS iter   1:  -308.61641633075527    1.52247e+00   9.82909e-03 
   @DF-RKS iter   2:  -308.64133644055090   -2.49201e-02   9.67953e-03 DIIS
   @DF-RKS iter   3:  -308.76229502940527   -1.20959e-01   1.62795e-03 DIIS
   @DF-RKS iter   4:  -308.76400390077231   -1.70887e-03   7.40493e-04 DIIS
   @DF-RKS iter   5:  -308.76464916132232   -6.45261e-04   1.93183e-04 DIIS
   @DF-RKS iter   6:  -308.76467590935448   -2.67480e-05   9.67938e-05 DIIS
   @DF-RKS iter   7:  -308.76468597025467   -1.00609e-05   1.23483e-05 DIIS
   @DF-RKS iter   8:  -308.76468624533271   -2.75078e-07   4.91924e-06 DIIS
   @DF-RKS iter   9:  -308.76468628840456   -4.30719e-08   1.22905e-06 DIIS
   @DF-RKS iter  10:  -308.76468629139589   -2.99133e-09   2.84804e-07 DIIS
   @DF-RKS iter  11:  -308.76468629160871   -2.12822e-10   1.35598e-07 DIIS
   @DF-RKS iter  12:  -308.76468629164054   -3.18323e-11   3.70649e-08 DIIS
   @DF-RKS iter  13:  -308.76468629164549   -4.94538e-12   8.07332e-09 DIIS

  ==> Post-Iterations <==

    Orbital Energies [Eh]
    ---------------------

    Doubly Occupied:                                                      

       1A    -19.675193     2A    -19.571960     3A    -10.649825  
       4A    -10.606643     5A    -10.538157     6A    -10.528293  
       7A     -1.214350     8A     -1.098668     9A     -0.880970  
      10A     -0.812317    11A     -0.749585    12A     -0.667733  
      13A     -0.627892    14A     -0.567326    15A     -0.560675  
      16A     -0.532885    17A     -0.502985    18A     -0.474954  
      19A     -0.465815    20A     -0.446148    21A     -0.427709  
      22A     -0.410993    23A     -0.407771    24A     -0.341026  
      25A     -0.313458  

    Virtual:                                                              

      26A     -0.007308    27A      0.007794    28A      0.014463  
      29A      0.019570    30A      0.032231    31A      0.036839  
      32A      0.042959    33A      0.052080    34A      0.061793  
      35A      0.067793    36A      0.071906    37A      0.072472  
      38A      0.093743    39A      0.103839    40A      0.107831  
      41A      0.120548    42A      0.125000    43A      0.131023  
      44A      0.139672    45A      0.144424    46A      0.149728  
      47A      0.153230    48A      0.156632    49A      0.161484  
      50A      0.170666    51A      0.179998    52A      0.191407  
      53A      0.208386    54A      0.213462    55A      0.217642  
      56A      0.236881    57A      0.245111    58A      0.245215  
      59A      0.254632    60A      0.257212    61A      0.282995  
      62A      0.284875    63A      0.300669    64A      0.304612  
      65A      0.323575    66A      0.332510    67A      0.334803  
      68A      0.346248    69A      0.357139    70A      0.369121  
      71A      0.371025    72A      0.411942    73A      0.450589  
      74A      0.454843    75A      0.469278    76A      0.478386  
      77A      0.481411    78A      0.496446    79A      0.541240  
      80A      0.551422    81A      0.568009    82A      0.608664  
      83A      0.623331    84A      0.661425    85A      0.668424  
      86A      0.686199    87A      0.699895    88A      0.701614  
      89A      0.717085    90A      0.723525    91A      0.728305  
      92A      0.730083    93A      0.756517    94A      0.767927  
      95A      0.791463    96A      0.819186    97A      0.920661  
      98A      0.947721    99A      0.968617   100A      1.017218  
     101A      1.050247   102A      1.085512   103A      1.102111  
     104A      1.127414   105A      1.207224   106A      1.234366  
     107A      1.241450   108A      1.261126   109A      1.280093  
     110A      1.309960   111A      1.371062   112A      1.391094  
     113A      1.414323   114A      1.473194   115A      1.496300  
     116A      1.518570   117A      1.526402   118A      1.566737  
     119A      1.573948   120A      1.594626   121A      1.596902  
     122A      1.613178   123A      1.648513   124A      1.660570  
     125A      1.666595   126A      1.679530   127A      1.695029  
     128A      1.734639   129A      1.737929   130A      1.745598  
     131A      1.775397   132A      1.775874   133A      1.827667  
     134A      1.862099   135A      1.907813   136A      1.933268  
     137A      1.953008   138A      1.971633   139A      2.044627  
     140A      2.073810   141A      2.122085   142A      2.147263  
     143A      2.172127   144A      2.177464   145A      2.224297  
     146A      2.268498   147A      2.287349   148A      2.380507  
     149A      2.405943   150A      2.457351   151A      2.507514  
     152A      2.521314   153A      2.531654   154A      2.556883  
     155A      2.565874   156A      2.599109   157A      2.616252  
     158A      2.631422   159A      2.646469   160A      2.666231  
     161A      2.689636   162A      2.715179   163A      2.738640  
     164A      2.785890   165A      2.810460   166A      2.858066  
     167A      2.879156   168A      2.926884   169A      2.961808  
     170A      2.981570   171A      3.024309   172A      3.102395  
     173A      3.145467   174A      3.201943   175A      3.237253  
     176A      3.293131   177A      3.434082   178A      3.491166  
     179A      3.591452   180A      3.746920   181A      3.814944  
     182A      3.840513   183A      3.849791   184A      3.867268  
     185A      3.894969   186A      3.938056   187A      4.031469  
     188A      4.118539   189A      4.251653   190A      4.312093  
     191A      5.232692   192A      5.278709   193A      5.330291  
     194A      5.351476   195A      5.647804   196A      5.807672  
     197A     23.873925   198A     23.970717   199A     23.980329  
     200A     24.062423   201A     50.006869   202A     50.141923  

    Final Occupation by Irrep:
              A 
    DOCC [    25 ]

  Energy converged.

  @DF-RKS Final Energy:  -308.76468629164549

   => Energetics <=

    Nuclear Repulsion Energy =            260.9850648184231545
    One-Electron Energy =                -936.4585738022910846
    Two-Electron Energy =                 387.2239261412237283
    DFT Exchange-Correlation Energy =     -20.5151034490011739
    Empirical Dispersion Energy =           0.0000000000000000
    VV10 Nonlocal Energy =                  0.0000000000000000
    Total Energy =                       -308.7646862916454324



Properties will be evaluated at   0.000000,   0.000000,   0.000000 [a0]

Properties computed using the SCF density matrix

  Nuclear Dipole Moment: [e a0]
     X:     3.5638      Y:    -1.1132      Z:     2.2755

  Electronic Dipole Moment: [e a0]
     X:    -2.3651      Y:     1.8203      Z:    -2.0852

  Dipole Moment: [e a0]
     X:     1.1987      Y:     0.7071      Z:     0.1904     Total:     1.4047

  Dipole Moment: [D]
     X:     3.0468      Y:     1.7974      Z:     0.4838     Total:     3.5703


*** tstop() called on localhost.localdomain at Thu Mar 14 09:10:27 2019
Module time:
	user time   =     236.30 seconds =       3.94 minutes
	system time =       7.35 seconds =       0.12 minutes
	total time  =         17 seconds =       0.28 minutes
Total time:
	user time   =     541.06 seconds =       9.02 minutes
	system time =      16.87 seconds =       0.28 minutes
	total time  =         38 seconds =       0.63 minutes

*** tstart() called on localhost.localdomain
*** at Thu Mar 14 09:10:27 2019


         ------------------------------------------------------------
                                   SCF GRAD                          
                          Rob Parrish, Justin Turney,                
                       Andy Simmonett, and Alex Sokolov              
         ------------------------------------------------------------

  ==> Geometry <==

    Molecular point group: c1
    Full point group: C1

    Geometry (in Angstrom), charge = 0, multiplicity = 1:

       Center              X                  Y                   Z               Mass       
    ------------   -----------------  -----------------  -----------------  -----------------
         C            0.054839322604    -0.303937661015    -0.190762076517    12.000000000000
         O           -1.037229199519    -0.463560488466    -0.891759370439    15.994914619560
         H           -0.939094118836    -2.519638876340     0.982344984853     1.007825032070
         H            0.825655128377    -2.626727046563     1.044069990643     1.007825032070
         H            0.699486745249     2.976178588904    -1.373214355944     1.007825032070
         C            1.009054675390     1.956603742376    -1.146858418029    12.000000000000
         H            1.134056455989     1.391570659108    -2.075656646395     1.007825032070
         H            1.949272539397     1.979282659571    -0.596143177242     1.007825032070
         O            0.010949393820     1.355629335771    -0.327103704306    15.994914619560
         H           -0.864997796704     0.868623430099    -0.876889737363     1.007825032070
         C            0.031631207784    -0.612931619440     1.283908708074    12.000000000000
         H           -0.091474621997    -2.383577949138     2.533504130380     1.007825032070
         H            1.016576424135    -0.548257524551    -0.678525856683     1.007825032070
         C           -0.047297608161    -2.128673115933     1.473962195410    12.000000000000
         H            0.925076113601    -0.203062714644     1.762723704869     1.007825032070
         H           -0.847818026221    -0.126365191215     1.711350159048     1.007825032070

  Nuclear repulsion =  260.985064818423155

  ==> Basis Set <==

  Basis Set: 6-311++G(D,P)
    Blend: 6-311++G(D,P)
    Number of shells: 110
    Number of basis function: 202
    Number of Cartesian functions: 208
    Spherical Harmonics?: true
    Max angular momentum: 2

  ==> DFJKGrad: Density-Fitted SCF Gradients <==

    Gradient:                    1
    J tasked:                  Yes
    K tasked:                  Yes
    wK tasked:                  No
    OpenMP threads:             16
    Integrals threads:          16
    Memory (MB):               375
    Schwarz Cutoff:          0E+00
    Fitting Condition:       1E-12

   => Auxiliary Basis Set <=

  Basis Set: (6-311++G(D,P) AUX)
    Blend: AUG-CC-PVTZ-JKFIT
    Number of shells: 320
    Number of basis function: 1084
    Number of Cartesian functions: 1336
    Spherical Harmonics?: true
    Max angular momentum: 4

  ==> DFT Potential <==

   => Composite Functional: M06-2X <= 

    Hybrid M06-2X Meta-GGA XC Functional

    Y. Zhao and D. G. Truhlar,  Theor. Chem. Acc., 120, 215, 2008


    Deriv               =              1
    GGA                 =           TRUE
    Meta                =           TRUE

    Exchange Hybrid     =           TRUE
    MP2 Hybrid          =          FALSE

   => Exchange Functionals <=

    1.0000   XC_HYB_MGGA_X_M06_2X

   => Exact (HF) Exchange <=

    0.5400               HF 

   => Correlation Functionals <=

    1.0000   XC_MGGA_C_M06_2X

   => Molecular Quadrature <=

    Radial Scheme       =       TREUTLER
    Pruning Scheme      =           FLAT
    Nuclear Scheme      =       TREUTLER

    BS radius alpha     =              1
    Pruning alpha       =              1
    Radial Points       =             75
    Spherical Points    =            302
    Total Points        =         362400
    Total Blocks        =           2713
    Max Points          =            256
    Max Functions       =            194


  -Total Gradient:
     Atom            X                  Y                   Z
    ------   -----------------  -----------------  -----------------
       1       -0.001062205473    -0.000033479461     0.000014848321
       2        0.000566078487     0.000064864141     0.000215379289
       3        0.000020650308    -0.000008972062     0.000001845831
       4        0.000021703391     0.000003879595     0.000013357991
       5       -0.000030398301     0.000000913452    -0.000011411831
       6       -0.000014221504     0.000010672059     0.000008857965
       7       -0.000012188578     0.000003907577    -0.000004349849
       8       -0.000015031158     0.000018722791    -0.000002673278
       9        0.000083555733     0.000014290472    -0.000028601353
      10       -0.000080050411    -0.000045188024    -0.000022414157
      11        0.000157623187     0.000031878237    -0.000020423867
      12        0.000015033969     0.000008263447     0.000012501757
      13        0.000330121681    -0.000068000697    -0.000151469306
      14        0.000010185184    -0.000007384721     0.000007715374
      15       -0.000019482855     0.000015550925     0.000056012549
      16       -0.000026854657    -0.000011481276    -0.000074003832


*** tstop() called on localhost.localdomain at Thu Mar 14 09:10:31 2019
Module time:
	user time   =      59.29 seconds =       0.99 minutes
	system time =       1.75 seconds =       0.03 minutes
	total time  =          4 seconds =       0.07 minutes
Total time:
	user time   =     600.38 seconds =      10.01 minutes
	system time =      18.62 seconds =       0.31 minutes
	total time  =         42 seconds =       0.70 minutes

  //>>>>>>>>>>>>>>>>>>>>>>>>>>>>>>>>>>>//
  //    Loading displacement 2 of 85   //
  //<<<<<<<<<<<<<<<<<<<<<<<<<<<<<<<<<<<//
gradient() will perform analytic gradient computation.

*** tstart() called on localhost.localdomain
*** at Thu Mar 14 09:10:31 2019

   => Loading Basis Set <=

    Name: 6-311++G(D,P)
    Role: ORBITAL
    Keyword: BASIS
    atoms 1, 6, 11, 14               entry C          line   119 file /root/psi4conda/share/psi4/basis/6-311ppg_d_p_.gbs 
    atoms 2, 9                       entry O          line   161 file /root/psi4conda/share/psi4/basis/6-311ppg_d_p_.gbs 
    atoms 3-5, 7-8, 10, 12-13, 15-16 entry H          line    42 file /root/psi4conda/share/psi4/basis/6-311ppg_d_p_.gbs 


         ---------------------------------------------------------
                                   SCF
            by Justin Turney, Rob Parrish, Andy Simmonett
                             and Daniel Smith
                              RKS Reference
                       16 Threads,    500 MiB Core
         ---------------------------------------------------------

  ==> Geometry <==

    Molecular point group: c1
    Full point group: C1

    Geometry (in Angstrom), charge = 0, multiplicity = 1:

       Center              X                  Y                   Z               Mass       
    ------------   -----------------  -----------------  -----------------  -----------------
         C            0.056245748402    -0.303938872931    -0.190769384816    12.000000000000
         O           -1.037541320193    -0.463488546864    -0.891690833626    15.994914619560
         H           -0.939396181604    -2.519593549962     0.982383795003     1.007825032070
         H            0.825351033586    -2.626787995965     1.043982295848     1.007825032070
         H            0.699346245269     2.976151938764    -1.373231082044     1.007825032070
         C            1.008869241670     1.956556065460    -1.146908410809    12.000000000000
         H            1.133771256973     1.391525786050    -2.075721766269     1.007825032070
         H            1.949127566068     1.979172628605    -0.596259687947     1.007825032070
         O            0.010786217516     1.355632305911    -0.327089471490    15.994914619560
         H           -0.865229150768     0.868684899265    -0.876818689000     1.007825032070
         C            0.031464643626    -0.612947717774     1.283899683562    12.000000000000
         H           -0.091658396117    -2.383600511820     2.533484250396     1.007825032070
         H            1.016274368907    -0.548310831541    -0.678604104115     1.007825032070
         C           -0.047541370505    -2.128686592783     1.473942001859    12.000000000000
         H            0.924968071819    -0.203137573144     1.762655768819     1.007825032070
         H           -0.847925119293    -0.126333401131     1.711408969998     1.007825032070

  Running in c1 symmetry.

  Rotational constants: A =      0.24412  B =      0.06480  C =      0.05686 [cm^-1]
  Rotational constants: A =   7318.51867  B =   1942.76040  C =   1704.47712 [MHz]
  Nuclear repulsion =  260.968543612310157

  Charge       = 0
  Multiplicity = 1
  Electrons    = 50
  Nalpha       = 25
  Nbeta        = 25

  ==> Algorithm <==

  SCF Algorithm Type is DF.
  DIIS enabled.
  MOM disabled.
  Fractional occupation disabled.
  Guess Type is SAD.
  Energy threshold   = 1.00e-08
  Density threshold  = 1.00e-08
  Integral threshold = 0.00e+00

  ==> Primary Basis <==

  Basis Set: 6-311++G(D,P)
    Blend: 6-311++G(D,P)
    Number of shells: 110
    Number of basis function: 202
    Number of Cartesian functions: 208
    Spherical Harmonics?: true
    Max angular momentum: 2

  ==> DFT Potential <==

   => Composite Functional: M06-2X <= 

    Hybrid M06-2X Meta-GGA XC Functional

    Y. Zhao and D. G. Truhlar,  Theor. Chem. Acc., 120, 215, 2008


    Deriv               =              1
    GGA                 =           TRUE
    Meta                =           TRUE

    Exchange Hybrid     =           TRUE
    MP2 Hybrid          =          FALSE

   => Exchange Functionals <=

    1.0000   XC_HYB_MGGA_X_M06_2X

   => Exact (HF) Exchange <=

    0.5400               HF 

   => Correlation Functionals <=

    1.0000   XC_MGGA_C_M06_2X

   => Molecular Quadrature <=

    Radial Scheme       =       TREUTLER
    Pruning Scheme      =           FLAT
    Nuclear Scheme      =       TREUTLER

    BS radius alpha     =              1
    Pruning alpha       =              1
    Radial Points       =             75
    Spherical Points    =            302
    Total Points        =         362400
    Total Blocks        =           2711
    Max Points          =            256
    Max Functions       =            194

   => Loading Basis Set <=

    Name: (6-311++G(D,P) AUX)
    Role: JKFIT
    Keyword: DF_BASIS_SCF
    atoms 1, 6, 11, 14               entry C          line   162 file /root/psi4conda/share/psi4/basis/aug-cc-pvtz-jkfit.gbs 
    atoms 2, 9                       entry O          line   286 file /root/psi4conda/share/psi4/basis/aug-cc-pvtz-jkfit.gbs 
    atoms 3-5, 7-8, 10, 12-13, 15-16 entry H          line    70 file /root/psi4conda/share/psi4/basis/aug-cc-pvtz-jkfit.gbs 

  ==> Pre-Iterations <==

   -------------------------------------------------------
    Irrep   Nso     Nmo     Nalpha   Nbeta   Ndocc  Nsocc
   -------------------------------------------------------
     A        202     202       0       0       0       0
   -------------------------------------------------------
    Total     202     202      25      25      25       0
   -------------------------------------------------------

  ==> Integral Setup <==

  DFHelper Memory: AOs need 0.407 [GiB]; user supplied 0.366 [GiB]. Turning off in-core AOs.

  ==> MemDFJK: Density-Fitted J/K Matrices <==

    J tasked:                   Yes
    K tasked:                   Yes
    wK tasked:                   No
    OpenMP threads:              16
    Memory (MB):                375
    Algorithm:                 Disk
    Schwarz Cutoff:           1E-12
    Mask sparsity (%):       5.2005
    Fitting Condition:        1E-12

   => Auxiliary Basis Set <=

  Basis Set: (6-311++G(D,P) AUX)
    Blend: AUG-CC-PVTZ-JKFIT
    Number of shells: 320
    Number of basis function: 1084
    Number of Cartesian functions: 1336
    Spherical Harmonics?: true
    Max angular momentum: 4

  Minimum eigenvalue in the overlap matrix is 2.9522582238E-05.
  Using Symmetric Orthogonalization.

  SCF Guess: Superposition of Atomic Densities via on-the-fly atomic UHF.

  ==> Iterations <==

                           Total Energy        Delta E     RMS |[F,P]|

   @DF-RKS iter   0:  -310.25387569983570   -3.10254e+02   8.33829e-02 
   @DF-RKS iter   1:  -308.61854449065981    1.63533e+00   1.14325e-02 
   @DF-RKS iter   2:  -308.52289534472743    9.56491e-02   1.46584e-02 DIIS
   @DF-RKS iter   3:  -308.76036686833521   -2.37472e-01   1.97104e-03 DIIS
   @DF-RKS iter   4:  -308.76349831582633   -3.13145e-03   9.98310e-04 DIIS
   @DF-RKS iter   5:  -308.76462207723586   -1.12376e-03   2.38431e-04 DIIS
   @DF-RKS iter   6:  -308.76467768749842   -5.56103e-05   7.95012e-05 DIIS
   @DF-RKS iter   7:  -308.76468614090089   -8.45340e-06   1.18455e-05 DIIS
   @DF-RKS iter   8:  -308.76468647468693   -3.33786e-07   3.21457e-06 DIIS
   @DF-RKS iter   9:  -308.76468649357878   -1.88919e-08   1.18208e-06 DIIS
   @DF-RKS iter  10:  -308.76468649590095   -2.32217e-09   2.58767e-07 DIIS
   @DF-RKS iter  11:  -308.76468649605141   -1.50465e-10   7.75500e-08 DIIS
   @DF-RKS iter  12:  -308.76468649606352   -1.21076e-11   3.76001e-08 DIIS
   @DF-RKS iter  13:  -308.76468649606602   -2.50111e-12   5.58407e-09 DIIS

  ==> Post-Iterations <==

    Orbital Energies [Eh]
    ---------------------

    Doubly Occupied:                                                      

       1A    -19.675279     2A    -19.571786     3A    -10.649804  
       4A    -10.606675     5A    -10.538201     6A    -10.528300  
       7A     -1.214188     8A     -1.098099     9A     -0.880978  
      10A     -0.812299    11A     -0.749704    12A     -0.667977  
      13A     -0.627789    14A     -0.567324    15A     -0.560694  
      16A     -0.532885    17A     -0.502941    18A     -0.474813  
      19A     -0.465823    20A     -0.446089    21A     -0.427640  
      22A     -0.411049    23A     -0.407770    24A     -0.340826  
      25A     -0.313445  

    Virtual:                                                              

      26A     -0.007334    27A      0.007780    28A      0.014450  
      29A      0.019560    30A      0.032225    31A      0.036826  
      32A      0.042962    33A      0.052068    34A      0.061749  
      35A      0.067802    36A      0.071893    37A      0.072383  
      38A      0.093738    39A      0.103816    40A      0.107826  
      41A      0.120521    42A      0.125027    43A      0.131027  
      44A      0.139660    45A      0.144441    46A      0.149735  
      47A      0.153240    48A      0.156628    49A      0.161497  
      50A      0.170672    51A      0.179999    52A      0.191441  
      53A      0.208365    54A      0.213458    55A      0.217642  
      56A      0.236869    57A      0.245159    58A      0.245192  
      59A      0.254593    60A      0.257205    61A      0.282999  
      62A      0.284871    63A      0.300655    64A      0.304565  
      65A      0.323571    66A      0.332313    67A      0.334752  
      68A      0.346304    69A      0.357123    70A      0.369137  
      71A      0.371041    72A      0.411948    73A      0.450590  
      74A      0.454749    75A      0.469184    76A      0.478334  
      77A      0.481375    78A      0.496415    79A      0.541268  
      80A      0.551407    81A      0.567893    82A      0.608531  
      83A      0.623276    84A      0.661386    85A      0.668467  
      86A      0.686285    87A      0.699750    88A      0.701625  
      89A      0.717098    90A      0.723452    91A      0.728296  
      92A      0.730080    93A      0.756530    94A      0.767985  
      95A      0.791448    96A      0.819155    97A      0.920667  
      98A      0.947656    99A      0.968513   100A      1.017193  
     101A      1.050249   102A      1.085483   103A      1.102230  
     104A      1.127366   105A      1.207293   106A      1.234349  
     107A      1.241371   108A      1.261186   109A      1.280280  
     110A      1.309986   111A      1.370988   112A      1.390911  
     113A      1.414316   114A      1.473165   115A      1.496519  
     116A      1.518549   117A      1.526335   118A      1.566858  
     119A      1.573988   120A      1.594653   121A      1.596911  
     122A      1.613257   123A      1.648477   124A      1.660570  
     125A      1.666567   126A      1.679591   127A      1.694974  
     128A      1.734768   129A      1.737852   130A      1.745591  
     131A      1.775457   132A      1.775955   133A      1.827741  
     134A      1.861969   135A      1.907862   136A      1.933112  
     137A      1.953181   138A      1.971513   139A      2.044779  
     140A      2.073746   141A      2.122241   142A      2.147263  
     143A      2.172202   144A      2.177454   145A      2.224298  
     146A      2.268238   147A      2.287494   148A      2.380815  
     149A      2.405866   150A      2.457321   151A      2.507807  
     152A      2.521493   153A      2.531557   154A      2.557063  
     155A      2.566221   156A      2.599171   157A      2.616318  
     158A      2.631478   159A      2.646435   160A      2.666091  
     161A      2.689676   162A      2.715098   163A      2.738440  
     164A      2.786057   165A      2.810536   166A      2.858000  
     167A      2.879080   168A      2.926781   169A      2.961873  
     170A      2.981607   171A      3.023976   172A      3.101953  
     173A      3.145556   174A      3.201792   175A      3.235910  
     176A      3.292235   177A      3.433573   178A      3.489626  
     179A      3.591406   180A      3.746972   181A      3.815053  
     182A      3.840527   183A      3.849813   184A      3.867251  
     185A      3.895119   186A      3.938149   187A      4.032164  
     188A      4.118994   189A      4.251600   190A      4.311753  
     191A      5.232623   192A      5.278698   193A      5.330224  
     194A      5.351448   195A      5.647642   196A      5.806575  
     197A     23.874036   198A     23.970680   199A     23.980291  
     200A     24.062396   201A     50.006796   202A     50.141629  

    Final Occupation by Irrep:
              A 
    DOCC [    25 ]

  Energy converged.

  @DF-RKS Final Energy:  -308.76468649606602

   => Energetics <=

    Nuclear Repulsion Energy =            260.9685436123101567
    One-Electron Energy =                -936.4276044457944863
    Two-Electron Energy =                 387.2093096391637346
    DFT Exchange-Correlation Energy =     -20.5149353017454388
    Empirical Dispersion Energy =           0.0000000000000000
    VV10 Nonlocal Energy =                  0.0000000000000000
    Total Energy =                       -308.7646864960659627



Properties will be evaluated at   0.000000,   0.000000,   0.000000 [a0]

Properties computed using the SCF density matrix

  Nuclear Dipole Moment: [e a0]
     X:     3.5618      Y:    -1.1134      Z:     2.2753

  Electronic Dipole Moment: [e a0]
     X:    -2.3600      Y:     1.8210      Z:    -2.0842

  Dipole Moment: [e a0]
     X:     1.2018      Y:     0.7076      Z:     0.1911     Total:     1.4077

  Dipole Moment: [D]
     X:     3.0547      Y:     1.7984      Z:     0.4857     Total:     3.5779


*** tstop() called on localhost.localdomain at Thu Mar 14 09:10:48 2019
Module time:
	user time   =     239.94 seconds =       4.00 minutes
	system time =       7.51 seconds =       0.13 minutes
	total time  =         17 seconds =       0.28 minutes
Total time:
	user time   =     840.49 seconds =      14.01 minutes
	system time =      26.15 seconds =       0.44 minutes
	total time  =         59 seconds =       0.98 minutes

*** tstart() called on localhost.localdomain
*** at Thu Mar 14 09:10:48 2019


         ------------------------------------------------------------
                                   SCF GRAD                          
                          Rob Parrish, Justin Turney,                
                       Andy Simmonett, and Alex Sokolov              
         ------------------------------------------------------------

  ==> Geometry <==

    Molecular point group: c1
    Full point group: C1

    Geometry (in Angstrom), charge = 0, multiplicity = 1:

       Center              X                  Y                   Z               Mass       
    ------------   -----------------  -----------------  -----------------  -----------------
         C            0.056245748402    -0.303938872931    -0.190769384816    12.000000000000
         O           -1.037541320193    -0.463488546864    -0.891690833626    15.994914619560
         H           -0.939396181604    -2.519593549962     0.982383795003     1.007825032070
         H            0.825351033586    -2.626787995965     1.043982295848     1.007825032070
         H            0.699346245269     2.976151938764    -1.373231082044     1.007825032070
         C            1.008869241670     1.956556065460    -1.146908410809    12.000000000000
         H            1.133771256973     1.391525786050    -2.075721766269     1.007825032070
         H            1.949127566068     1.979172628605    -0.596259687947     1.007825032070
         O            0.010786217516     1.355632305911    -0.327089471490    15.994914619560
         H           -0.865229150768     0.868684899265    -0.876818689000     1.007825032070
         C            0.031464643626    -0.612947717774     1.283899683562    12.000000000000
         H           -0.091658396117    -2.383600511820     2.533484250396     1.007825032070
         H            1.016274368907    -0.548310831541    -0.678604104115     1.007825032070
         C           -0.047541370505    -2.128686592783     1.473942001859    12.000000000000
         H            0.924968071819    -0.203137573144     1.762655768819     1.007825032070
         H           -0.847925119293    -0.126333401131     1.711408969998     1.007825032070

  Nuclear repulsion =  260.968543612310157

  ==> Basis Set <==

  Basis Set: 6-311++G(D,P)
    Blend: 6-311++G(D,P)
    Number of shells: 110
    Number of basis function: 202
    Number of Cartesian functions: 208
    Spherical Harmonics?: true
    Max angular momentum: 2

  ==> DFJKGrad: Density-Fitted SCF Gradients <==

    Gradient:                    1
    J tasked:                  Yes
    K tasked:                  Yes
    wK tasked:                  No
    OpenMP threads:             16
    Integrals threads:          16
    Memory (MB):               375
    Schwarz Cutoff:          0E+00
    Fitting Condition:       1E-12

   => Auxiliary Basis Set <=

  Basis Set: (6-311++G(D,P) AUX)
    Blend: AUG-CC-PVTZ-JKFIT
    Number of shells: 320
    Number of basis function: 1084
    Number of Cartesian functions: 1336
    Spherical Harmonics?: true
    Max angular momentum: 4

  ==> DFT Potential <==

   => Composite Functional: M06-2X <= 

    Hybrid M06-2X Meta-GGA XC Functional

    Y. Zhao and D. G. Truhlar,  Theor. Chem. Acc., 120, 215, 2008


    Deriv               =              1
    GGA                 =           TRUE
    Meta                =           TRUE

    Exchange Hybrid     =           TRUE
    MP2 Hybrid          =          FALSE

   => Exchange Functionals <=

    1.0000   XC_HYB_MGGA_X_M06_2X

   => Exact (HF) Exchange <=

    0.5400               HF 

   => Correlation Functionals <=

    1.0000   XC_MGGA_C_M06_2X

   => Molecular Quadrature <=

    Radial Scheme       =       TREUTLER
    Pruning Scheme      =           FLAT
    Nuclear Scheme      =       TREUTLER

    BS radius alpha     =              1
    Pruning alpha       =              1
    Radial Points       =             75
    Spherical Points    =            302
    Total Points        =         362400
    Total Blocks        =           2711
    Max Points          =            256
    Max Functions       =            194


  -Total Gradient:
     Atom            X                  Y                   Z
    ------   -----------------  -----------------  -----------------
       1        0.001016574107    -0.000391748742     0.000046522368
       2       -0.000369555109    -0.000101121761    -0.000144876382
       3        0.000017806207    -0.000017839020     0.000007479560
       4        0.000021956348     0.000009798205     0.000008172593
       5       -0.000033465098     0.000001199240    -0.000009445633
       6       -0.000014977982    -0.000030672070     0.000015183874
       7       -0.000006401107     0.000001475280    -0.000001331231
       8       -0.000017980354     0.000013036228    -0.000002395484
       9       -0.000197963533     0.000165946448    -0.000089117461
      10        0.000015203067     0.000235788477    -0.000019380223
      11       -0.000117459715     0.000036824028     0.000040776225
      12        0.000013869070     0.000005854646     0.000010941751
      13       -0.000332541042     0.000063799484     0.000150371920
      14        0.000008502790    -0.000001202015     0.000010725240
      15       -0.000021930267     0.000039065647    -0.000041796019
      16       -0.000038670252    -0.000031676644     0.000030286024


*** tstop() called on localhost.localdomain at Thu Mar 14 09:10:53 2019
Module time:
	user time   =      62.97 seconds =       1.05 minutes
	system time =       1.78 seconds =       0.03 minutes
	total time  =          5 seconds =       0.08 minutes
Total time:
	user time   =     903.48 seconds =      15.06 minutes
	system time =      27.93 seconds =       0.47 minutes
	total time  =         64 seconds =       1.07 minutes

  //>>>>>>>>>>>>>>>>>>>>>>>>>>>>>>>>>>>//
  //    Loading displacement 3 of 85   //
  //<<<<<<<<<<<<<<<<<<<<<<<<<<<<<<<<<<<//
gradient() will perform analytic gradient computation.

*** tstart() called on localhost.localdomain
*** at Thu Mar 14 09:10:53 2019

   => Loading Basis Set <=

    Name: 6-311++G(D,P)
    Role: ORBITAL
    Keyword: BASIS
    atoms 1, 6, 11, 14               entry C          line   119 file /root/psi4conda/share/psi4/basis/6-311ppg_d_p_.gbs 
    atoms 2, 9                       entry O          line   161 file /root/psi4conda/share/psi4/basis/6-311ppg_d_p_.gbs 
    atoms 3-5, 7-8, 10, 12-13, 15-16 entry H          line    42 file /root/psi4conda/share/psi4/basis/6-311ppg_d_p_.gbs 


         ---------------------------------------------------------
                                   SCF
            by Justin Turney, Rob Parrish, Andy Simmonett
                             and Daniel Smith
                              RKS Reference
                       16 Threads,    500 MiB Core
         ---------------------------------------------------------

  ==> Geometry <==

    Molecular point group: c1
    Full point group: C1

    Geometry (in Angstrom), charge = 0, multiplicity = 1:

       Center              X                  Y                   Z               Mass       
    ------------   -----------------  -----------------  -----------------  -----------------
         C            0.055542535503    -0.304648646870    -0.190767853759    12.000000000000
         O           -1.037384465107    -0.463411284690    -0.891727901021    15.994914619560
         H           -0.939238968370    -2.519515715117     0.982347337138     1.007825032070
         H            0.825509529471    -2.626653454896     1.044007659496     1.007825032070
         H            0.699409315673     2.976285757182    -1.373202415915     1.007825032070
         C            1.008957175381     1.956699533081    -1.146870281620    12.000000000000
         H            1.133909989065     1.391674556163    -2.075680028921     1.007825032070
         H            1.949195433695     1.979345594249    -0.596188510947     1.007825032070
         O            0.010864703441     1.355742522891    -0.327087219581    15.994914619560
         H           -0.865115688666     0.868767684794    -0.876847869123     1.007825032070
         C            0.031549909572    -0.612839057891     1.283899945734    12.000000000000
         H           -0.091560028457    -2.383497537864     2.533477746529     1.007825032070
         H            1.016426466499    -0.548167769851    -0.678569168661     1.007825032070
         C           -0.047414000136    -2.128580736346     1.473937399903    12.000000000000
         H            0.925023336128    -0.203000820957     1.762687970866     1.007825032070
         H           -0.847870523138    -0.126253631576     1.711379022577     1.007825032070

  Running in c1 symmetry.

  Rotational constants: A =      0.24411  B =      0.06480  C =      0.05685 [cm^-1]
  Rotational constants: A =   7318.28753  B =   1942.74979  C =   1704.44167 [MHz]
  Nuclear repulsion =  260.971973794827250

  Charge       = 0
  Multiplicity = 1
  Electrons    = 50
  Nalpha       = 25
  Nbeta        = 25

  ==> Algorithm <==

  SCF Algorithm Type is DF.
  DIIS enabled.
  MOM disabled.
  Fractional occupation disabled.
  Guess Type is SAD.
  Energy threshold   = 1.00e-08
  Density threshold  = 1.00e-08
  Integral threshold = 0.00e+00

  ==> Primary Basis <==

  Basis Set: 6-311++G(D,P)
    Blend: 6-311++G(D,P)
    Number of shells: 110
    Number of basis function: 202
    Number of Cartesian functions: 208
    Spherical Harmonics?: true
    Max angular momentum: 2

  ==> DFT Potential <==

   => Composite Functional: M06-2X <= 

    Hybrid M06-2X Meta-GGA XC Functional

    Y. Zhao and D. G. Truhlar,  Theor. Chem. Acc., 120, 215, 2008


    Deriv               =              1
    GGA                 =           TRUE
    Meta                =           TRUE

    Exchange Hybrid     =           TRUE
    MP2 Hybrid          =          FALSE

   => Exchange Functionals <=

    1.0000   XC_HYB_MGGA_X_M06_2X

   => Exact (HF) Exchange <=

    0.5400               HF 

   => Correlation Functionals <=

    1.0000   XC_MGGA_C_M06_2X

   => Molecular Quadrature <=

    Radial Scheme       =       TREUTLER
    Pruning Scheme      =           FLAT
    Nuclear Scheme      =       TREUTLER

    BS radius alpha     =              1
    Pruning alpha       =              1
    Radial Points       =             75
    Spherical Points    =            302
    Total Points        =         362400
    Total Blocks        =           2713
    Max Points          =            256
    Max Functions       =            194

   => Loading Basis Set <=

    Name: (6-311++G(D,P) AUX)
    Role: JKFIT
    Keyword: DF_BASIS_SCF
    atoms 1, 6, 11, 14               entry C          line   162 file /root/psi4conda/share/psi4/basis/aug-cc-pvtz-jkfit.gbs 
    atoms 2, 9                       entry O          line   286 file /root/psi4conda/share/psi4/basis/aug-cc-pvtz-jkfit.gbs 
    atoms 3-5, 7-8, 10, 12-13, 15-16 entry H          line    70 file /root/psi4conda/share/psi4/basis/aug-cc-pvtz-jkfit.gbs 

  ==> Pre-Iterations <==

   -------------------------------------------------------
    Irrep   Nso     Nmo     Nalpha   Nbeta   Ndocc  Nsocc
   -------------------------------------------------------
     A        202     202       0       0       0       0
   -------------------------------------------------------
    Total     202     202      25      25      25       0
   -------------------------------------------------------

  ==> Integral Setup <==

  DFHelper Memory: AOs need 0.407 [GiB]; user supplied 0.366 [GiB]. Turning off in-core AOs.

  ==> MemDFJK: Density-Fitted J/K Matrices <==

    J tasked:                   Yes
    K tasked:                   Yes
    wK tasked:                   No
    OpenMP threads:              16
    Memory (MB):                375
    Algorithm:                 Disk
    Schwarz Cutoff:           1E-12
    Mask sparsity (%):       5.2005
    Fitting Condition:        1E-12

   => Auxiliary Basis Set <=

  Basis Set: (6-311++G(D,P) AUX)
    Blend: AUG-CC-PVTZ-JKFIT
    Number of shells: 320
    Number of basis function: 1084
    Number of Cartesian functions: 1336
    Spherical Harmonics?: true
    Max angular momentum: 4

  Minimum eigenvalue in the overlap matrix is 2.9506651907E-05.
  Using Symmetric Orthogonalization.

  SCF Guess: Superposition of Atomic Densities via on-the-fly atomic UHF.

  ==> Iterations <==

                           Total Energy        Delta E     RMS |[F,P]|

   @DF-RKS iter   0:  -310.13035686220690   -3.10130e+02   7.86331e-02 
   @DF-RKS iter   1:  -308.64597633654802    1.48438e+00   9.64676e-03 
   @DF-RKS iter   2:  -308.67702505785655   -3.10487e-02   8.68906e-03 DIIS
   @DF-RKS iter   3:  -308.76210991856209   -8.50849e-02   1.52215e-03 DIIS
   @DF-RKS iter   4:  -308.76404122286141   -1.93130e-03   7.35591e-04 DIIS
   @DF-RKS iter   5:  -308.76463603538275   -5.94813e-04   1.86415e-04 DIIS
   @DF-RKS iter   6:  -308.76467434060487   -3.83052e-05   1.02321e-04 DIIS
   @DF-RKS iter   7:  -308.76468593074600   -1.15901e-05   1.50306e-05 DIIS
   @DF-RKS iter   8:  -308.76468652086811   -5.90122e-07   6.29145e-06 DIIS
   @DF-RKS iter   9:  -308.76468660525092   -8.43828e-08   1.56096e-06 DIIS
   @DF-RKS iter  10:  -308.76468661220491   -6.95400e-09   3.80205e-07 DIIS
   @DF-RKS iter  11:  -308.76468661263851   -4.33602e-10   1.52095e-07 DIIS
   @DF-RKS iter  12:  -308.76468661268996   -5.14433e-11   5.62636e-08 DIIS
   @DF-RKS iter  13:  -308.76468661269803   -8.07177e-12   1.23947e-08 DIIS
   @DF-RKS iter  14:  -308.76468661269786    1.70530e-13   2.84452e-09 DIIS

  ==> Post-Iterations <==

    Orbital Energies [Eh]
    ---------------------

    Doubly Occupied:                                                      

       1A    -19.675067     2A    -19.571932     3A    -10.649828  
       4A    -10.606581     5A    -10.538204     6A    -10.528324  
       7A     -1.214092     8A     -1.098415     9A     -0.881041  
      10A     -0.812189    11A     -0.749663    12A     -0.667876  
      13A     -0.627731    14A     -0.567260    15A     -0.560633  
      16A     -0.532891    17A     -0.503025    18A     -0.474951  
      19A     -0.465759    20A     -0.446079    21A     -0.427744  
      22A     -0.410923    23A     -0.407801    24A     -0.340902  
      25A     -0.313526  

    Virtual:                                                              

      26A     -0.007313    27A      0.007781    28A      0.014458  
      29A      0.019565    30A      0.032237    31A      0.036835  
      32A      0.042954    33A      0.052070    34A      0.061744  
      35A      0.067802    36A      0.071883    37A      0.072328  
      38A      0.093703    39A      0.103802    40A      0.107825  
      41A      0.120543    42A      0.125007    43A      0.131020  
      44A      0.139672    45A      0.144441    46A      0.149733  
      47A      0.153235    48A      0.156601    49A      0.161482  
      50A      0.170641    51A      0.179989    52A      0.191423  
      53A      0.208408    54A      0.213481    55A      0.217623  
      56A      0.236881    57A      0.245131    58A      0.245212  
      59A      0.254656    60A      0.257234    61A      0.282988  
      62A      0.284899    63A      0.300680    64A      0.304588  
      65A      0.323641    66A      0.332409    67A      0.334771  
      68A      0.346263    69A      0.357118    70A      0.369139  
      71A      0.371033    72A      0.411947    73A      0.450613  
      74A      0.454807    75A      0.469218    76A      0.478373  
      77A      0.481409    78A      0.496504    79A      0.541278  
      80A      0.551429    81A      0.567946    82A      0.608583  
      83A      0.623363    84A      0.661449    85A      0.668501  
      86A      0.686284    87A      0.699852    88A      0.701688  
      89A      0.717090    90A      0.723501    91A      0.728348  
      92A      0.730067    93A      0.756553    94A      0.767987  
      95A      0.791452    96A      0.819140    97A      0.920683  
      98A      0.947727    99A      0.968650   100A      1.017216  
     101A      1.050217   102A      1.085599   103A      1.102207  
     104A      1.127317   105A      1.207300   106A      1.234273  
     107A      1.241303   108A      1.261062   109A      1.280266  
     110A      1.309958   111A      1.371017   112A      1.391053  
     113A      1.414342   114A      1.473232   115A      1.496439  
     116A      1.518549   117A      1.526390   118A      1.566790  
     119A      1.573926   120A      1.594613   121A      1.596915  
     122A      1.613195   123A      1.648518   124A      1.660546  
     125A      1.666520   126A      1.679557   127A      1.695041  
     128A      1.734678   129A      1.737965   130A      1.745601  
     131A      1.775461   132A      1.775950   133A      1.827658  
     134A      1.862106   135A      1.907902   136A      1.933103  
     137A      1.953234   138A      1.971480   139A      2.044764  
     140A      2.073743   141A      2.122117   142A      2.147310  
     143A      2.172102   144A      2.177495   145A      2.224300  
     146A      2.268358   147A      2.287500   148A      2.380655  
     149A      2.406038   150A      2.457387   151A      2.507699  
     152A      2.521373   153A      2.531615   154A      2.557026  
     155A      2.566142   156A      2.599181   157A      2.616243  
     158A      2.631470   159A      2.646447   160A      2.666187  
     161A      2.689746   162A      2.715262   163A      2.738533  
     164A      2.785870   165A      2.810528   166A      2.857940  
     167A      2.879189   168A      2.926928   169A      2.961850  
     170A      2.981587   171A      3.024216   172A      3.102194  
     173A      3.145430   174A      3.201971   175A      3.236408  
     176A      3.292790   177A      3.434103   178A      3.490550  
     179A      3.591070   180A      3.746918   181A      3.814974  
     182A      3.840573   183A      3.849770   184A      3.867223  
     185A      3.895016   186A      3.937720   187A      4.031862  
     188A      4.118848   189A      4.251855   190A      4.311624  
     191A      5.232412   192A      5.278719   193A      5.330386  
     194A      5.351378   195A      5.647708   196A      5.807144  
     197A     23.874266   198A     23.970759   199A     23.980377  
     200A     24.062414   201A     50.006969   202A     50.141800  

    Final Occupation by Irrep:
              A 
    DOCC [    25 ]

  Energy converged.

  @DF-RKS Final Energy:  -308.76468661269786

   => Energetics <=

    Nuclear Repulsion Energy =            260.9719737948272495
    One-Electron Energy =                -936.4342598211437689
    Two-Electron Energy =                 387.2126271254219887
    DFT Exchange-Correlation Energy =     -20.5150277118033415
    Empirical Dispersion Energy =           0.0000000000000000
    VV10 Nonlocal Energy =                  0.0000000000000000
    Total Energy =                       -308.7646866126978580



Properties will be evaluated at   0.000000,   0.000000,   0.000000 [a0]

Properties computed using the SCF density matrix

  Nuclear Dipole Moment: [e a0]
     X:     3.5628      Y:    -1.1123      Z:     2.2754

  Electronic Dipole Moment: [e a0]
     X:    -2.3630      Y:     1.8176      Z:    -2.0842

  Dipole Moment: [e a0]
     X:     1.1998      Y:     0.7054      Z:     0.1912     Total:     1.4048

  Dipole Moment: [D]
     X:     3.0495      Y:     1.7929      Z:     0.4859     Total:     3.5707


*** tstop() called on localhost.localdomain at Thu Mar 14 09:11:11 2019
Module time:
	user time   =     252.22 seconds =       4.20 minutes
	system time =       7.91 seconds =       0.13 minutes
	total time  =         18 seconds =       0.30 minutes
Total time:
	user time   =    1155.96 seconds =      19.27 minutes
	system time =      35.87 seconds =       0.60 minutes
	total time  =         82 seconds =       1.37 minutes

*** tstart() called on localhost.localdomain
*** at Thu Mar 14 09:11:11 2019


         ------------------------------------------------------------
                                   SCF GRAD                          
                          Rob Parrish, Justin Turney,                
                       Andy Simmonett, and Alex Sokolov              
         ------------------------------------------------------------

  ==> Geometry <==

    Molecular point group: c1
    Full point group: C1

    Geometry (in Angstrom), charge = 0, multiplicity = 1:

       Center              X                  Y                   Z               Mass       
    ------------   -----------------  -----------------  -----------------  -----------------
         C            0.055542535503    -0.304648646870    -0.190767853759    12.000000000000
         O           -1.037384465107    -0.463411284690    -0.891727901021    15.994914619560
         H           -0.939238968370    -2.519515715117     0.982347337138     1.007825032070
         H            0.825509529471    -2.626653454896     1.044007659496     1.007825032070
         H            0.699409315673     2.976285757182    -1.373202415915     1.007825032070
         C            1.008957175381     1.956699533081    -1.146870281620    12.000000000000
         H            1.133909989065     1.391674556163    -2.075680028921     1.007825032070
         H            1.949195433695     1.979345594249    -0.596188510947     1.007825032070
         O            0.010864703441     1.355742522891    -0.327087219581    15.994914619560
         H           -0.865115688666     0.868767684794    -0.876847869123     1.007825032070
         C            0.031549909572    -0.612839057891     1.283899945734    12.000000000000
         H           -0.091560028457    -2.383497537864     2.533477746529     1.007825032070
         H            1.016426466499    -0.548167769851    -0.678569168661     1.007825032070
         C           -0.047414000136    -2.128580736346     1.473937399903    12.000000000000
         H            0.925023336128    -0.203000820957     1.762687970866     1.007825032070
[...]
     16   H               -0.04 -0.08 -0.27    0.01  0.15 -0.02   -0.05 -0.40  0.29   

  Vibration                       28                  29                  30          
  Freq [cm^-1]                1294.8899           1324.3438           1364.3706       
  Irrep                           A                   A                   A           
  Reduced mass [u]              1.2505              1.4092              1.5942        
  Force const [mDyne/A]         1.2354              1.4562              1.7485        
  Turning point v=0 [a0]        0.2727              0.2540              0.2353        
  RMS dev v=0 [a0 u^1/2]        0.2156              0.2132              0.2101        
  Char temp [K]               1863.0555           1905.4330           1963.0226       
  ----------------------------------------------------------------------------------
      1   C                0.00 -0.02  0.06    0.08 -0.01 -0.02    0.10  0.05 -0.03   
      2   O               -0.04 -0.01 -0.04   -0.09 -0.01 -0.02   -0.07 -0.02 -0.02   
      3   H               -0.01  0.15 -0.01    0.08 -0.04 -0.10   -0.09  0.05  0.05   
      4   H               -0.03 -0.10 -0.04   -0.03  0.06 -0.06    0.11  0.08  0.11   
      5   H               -0.13 -0.08 -0.04   -0.02  0.00  0.07   -0.09 -0.01  0.10   
      6   C                0.03 -0.00  0.06   -0.00 -0.01 -0.02    0.00 -0.01 -0.01   
      7   H               -0.23 -0.04  0.05    0.02  0.00 -0.02   -0.05 -0.04  0.01   
      8   H                0.17  0.11 -0.17   -0.05  0.01  0.06   -0.06 -0.01  0.09   
      9   O                0.00  0.01 -0.07   -0.01  0.02  0.02   -0.01  0.03  0.00   
     10   H               -0.35  0.12  0.45    0.18  0.03 -0.16    0.13  0.12 -0.12   
     11   C                0.00 -0.01 -0.02    0.03  0.06 -0.09   -0.01 -0.12  0.11   
     12   H               -0.07  0.02  0.00    0.05 -0.18  0.01    0.07  0.23  0.01   
     13   H                0.16  0.10  0.33    0.39 -0.15  0.64    0.19 -0.35  0.31   
     14   C                0.05 -0.01  0.00   -0.02  0.00  0.05   -0.02 -0.01 -0.05   
     15   H                0.01 -0.23  0.15    0.01 -0.21  0.18   -0.01  0.49 -0.38   
     16   H                0.03  0.33 -0.35   -0.05 -0.36  0.21    0.08  0.31 -0.19   

  Vibration                       31                  32                  33          
  Freq [cm^-1]                1408.6159           1473.9126           1479.8098       
  Irrep                           A                   A                   A           
  Reduced mass [u]              1.2575              1.2064              1.1007        
  Force const [mDyne/A]         1.4701              1.5441              1.4201        
  Turning point v=0 [a0]        0.2607              0.2602              0.2719        
  RMS dev v=0 [a0 u^1/2]        0.2067              0.2021              0.2017        
  Char temp [K]               2026.6815           2120.6288           2129.1136       
  ----------------------------------------------------------------------------------
      1   C                0.02 -0.01  0.02   -0.05  0.01 -0.06    0.00  0.02 -0.01   
      2   O               -0.00  0.00 -0.01    0.02  0.00  0.02   -0.00 -0.00  0.00   
      3   H               -0.13  0.52 -0.25   -0.01  0.02 -0.00   -0.11  0.10  0.10   
      4   H                0.21  0.46 -0.19    0.01  0.02 -0.02    0.11  0.05  0.16   
      5   H                0.00 -0.00 -0.02    0.47  0.07 -0.18    0.23  0.04 -0.07   
      6   C                0.00 -0.00  0.00   -0.07 -0.05  0.04   -0.03 -0.03  0.02   
      7   H               -0.00  0.01 -0.01    0.32  0.30 -0.13    0.11  0.13 -0.06   
      8   H                0.01  0.01 -0.01    0.17  0.31 -0.36    0.07  0.18 -0.15   
      9   O               -0.00 -0.00  0.00   -0.01 -0.01  0.01   -0.01 -0.01  0.01   
     10   H                0.01  0.00  0.01   -0.02  0.01 -0.05   -0.01  0.04 -0.02   
     11   C               -0.01  0.03 -0.02    0.01 -0.04 -0.02   -0.00  0.04  0.06   
     12   H                0.07  0.51  0.18   -0.01  0.04  0.01    0.04 -0.09 -0.02   
     13   H               -0.03  0.04 -0.10    0.08 -0.07  0.22    0.00 -0.05  0.02   
     14   C               -0.01 -0.14  0.03    0.00 -0.01 -0.00   -0.00 -0.00 -0.01   
     15   H                0.00 -0.05  0.03   -0.19  0.15  0.22    0.38 -0.32 -0.36   
     16   H               -0.01 -0.07  0.09    0.19  0.20  0.10   -0.38 -0.28 -0.38   

  Vibration                       34                  35                  36          
  Freq [cm^-1]                1498.6202           1502.7982           1507.4775       
  Irrep                           A                   A                   A           
  Reduced mass [u]              1.1979              1.0382              1.1063        
  Force const [mDyne/A]         1.5852              1.3815              1.4812        
  Turning point v=0 [a0]        0.2590              0.2778              0.2687        
  RMS dev v=0 [a0 u^1/2]        0.2004              0.2001              0.1998        
  Char temp [K]               2156.1775           2162.1887           2168.9212       
  ----------------------------------------------------------------------------------
      1   C               -0.07 -0.00 -0.07   -0.00 -0.00  0.00    0.05  0.00  0.04   
      2   O                0.04  0.01  0.03    0.00  0.00  0.00   -0.02 -0.00 -0.02   
      3   H               -0.17  0.08  0.25    0.04  0.27 -0.34    0.26 -0.21 -0.28   
      4   H                0.15  0.18  0.05    0.04 -0.27  0.45   -0.26 -0.16 -0.30   
      5   H               -0.23  0.05  0.40   -0.07  0.00  0.07    0.19  0.15  0.41   
      6   C               -0.02  0.04 -0.03   -0.01  0.01 -0.00   -0.03 -0.01 -0.02   
      7   H                0.37 -0.38  0.28    0.14 -0.07  0.06    0.17 -0.30  0.20   
      8   H                0.14 -0.24 -0.27    0.06 -0.09 -0.11    0.11  0.25 -0.24   
      9   O                0.00  0.01  0.00   -0.00  0.00 -0.00   -0.01 -0.00 -0.01   
     10   H               -0.05 -0.09 -0.02   -0.01 -0.01  0.01   -0.01  0.08  0.03   
     11   C                0.02  0.00  0.01   -0.02 -0.00 -0.01   -0.01  0.00  0.02   
     12   H               -0.17 -0.06 -0.03    0.66 -0.10 -0.00    0.00  0.22  0.07   
     13   H                0.08  0.00  0.20   -0.02  0.02 -0.02   -0.05  0.00 -0.14   
     14   C                0.01 -0.02 -0.02   -0.04  0.01 -0.01   -0.00  0.01  0.03   
     15   H               -0.00 -0.04  0.08   -0.04 -0.03  0.04    0.06  0.01 -0.12   
     16   H               -0.01  0.01 -0.06    0.03  0.07  0.03   -0.05 -0.03 -0.02   

  Vibration                       37                  38                  39          
  Freq [cm^-1]                1510.3236           1527.0000           2105.2940       
  Irrep                           A                   A                   A           
  Reduced mass [u]              1.0582              1.7494              1.0640        
  Force const [mDyne/A]         1.4223              2.4033              2.7786        
  Turning point v=0 [a0]        0.2745              0.2123              0.2318        
  RMS dev v=0 [a0 u^1/2]        0.1996              0.1986              0.1691        
  Char temp [K]               2173.0161           2197.0096           3029.0447       
  ----------------------------------------------------------------------------------
      1   C               -0.02 -0.01 -0.01    0.15 -0.00  0.16   -0.01  0.04 -0.01   
      2   O                0.01  0.00  0.01   -0.07 -0.01 -0.06   -0.01  0.01 -0.01   
      3   H               -0.15  0.13  0.14   -0.24  0.08  0.38    0.00  0.00  0.00   
      4   H                0.15  0.07  0.20    0.21  0.16  0.24   -0.00  0.00 -0.00   
      5   H                0.32  0.16  0.33    0.05  0.02  0.03    0.01 -0.00  0.00   
      6   C                0.02 -0.02 -0.04   -0.03 -0.00  0.02    0.00 -0.00  0.00   
      7   H               -0.41 -0.26  0.07    0.27  0.02  0.04    0.00  0.01  0.01   
      8   H               -0.15  0.52  0.22    0.15 -0.01 -0.27    0.02  0.02 -0.03   
      9   O                0.00 -0.01 -0.01   -0.02 -0.00 -0.01   -0.03 -0.02 -0.03   
     10   H               -0.01 -0.04 -0.02    0.04  0.20  0.10    0.68 -0.42  0.59   
     11   C                0.00 -0.00 -0.02   -0.02  0.00 -0.08   -0.00 -0.00  0.00   
     12   H                0.04 -0.14 -0.04   -0.14 -0.32 -0.10   -0.00 -0.00  0.00   
     13   H               -0.00  0.04  0.01   -0.14 -0.00 -0.36   -0.02 -0.03  0.01   
     14   C               -0.00 -0.01 -0.02    0.01  0.01 -0.03    0.00 -0.00  0.00   
     15   H               -0.06  0.01  0.09   -0.10  0.11 -0.01    0.00 -0.00 -0.00   
     16   H                0.05  0.03  0.05    0.12 -0.04  0.25   -0.00  0.00 -0.01   

  Vibration                       40                  41                  42          
  Freq [cm^-1]                2971.1675           3059.6916           3066.5216       
  Irrep                           A                   A                   A           
  Reduced mass [u]              1.0858              1.0352              1.0369        
  Force const [mDyne/A]         5.6476              5.7097              5.7451        
  Turning point v=0 [a0]        0.1932              0.1950              0.1946        
  RMS dev v=0 [a0 u^1/2]        0.1423              0.1403              0.1401        
  Char temp [K]               4274.8421           4402.2082           4412.0351       
  ----------------------------------------------------------------------------------
      1   C               -0.07  0.02  0.04    0.00 -0.00 -0.00   -0.00  0.00  0.00   
      2   O               -0.00 -0.00 -0.00    0.00  0.00  0.00   -0.00 -0.00 -0.00   
      3   H                0.01  0.00  0.00   -0.02 -0.01 -0.01   -0.41 -0.17 -0.22   
      4   H               -0.01  0.00  0.01    0.03 -0.01 -0.01    0.57 -0.31 -0.28   
      5   H                0.00 -0.00 -0.00    0.12 -0.39  0.08   -0.00  0.02 -0.00   
      6   C                0.00 -0.00 -0.00    0.03 -0.00 -0.04   -0.00  0.00  0.00   
      7   H               -0.00  0.02  0.02   -0.08  0.41  0.67    0.00 -0.02 -0.03   
      8   H               -0.02  0.00 -0.01   -0.38 -0.01 -0.23    0.02  0.00  0.01   
      9   O                0.00  0.00  0.00    0.00  0.00 -0.00   -0.00  0.00 -0.00   
     10   H               -0.01 -0.02  0.01   -0.01 -0.00 -0.01    0.00 -0.00  0.00   
     11   C                0.01  0.00 -0.00   -0.00  0.00 -0.00    0.00 -0.00 -0.00   
     12   H                0.00 -0.00 -0.01   -0.00 -0.00  0.02   -0.03 -0.10  0.49   
     13   H                0.86 -0.21 -0.46   -0.03  0.01  0.01    0.01 -0.00 -0.01   
     14   C                0.00 -0.00 -0.00   -0.00  0.00 -0.00   -0.01  0.05  0.00   
     15   H               -0.05 -0.02 -0.02    0.00  0.00  0.00    0.02  0.01  0.01   
     16   H               -0.03  0.02  0.01   -0.00 -0.00  0.00   -0.05  0.03  0.03   

  Vibration                       43                  44                  45          
  Freq [cm^-1]                3076.8974           3126.0430           3142.7795       
  Irrep                           A                   A                   A           
  Reduced mass [u]              1.0605              1.1022              1.1023        
  Force const [mDyne/A]         5.9155              6.3459              6.4149        
  Turning point v=0 [a0]        0.1921              0.1869              0.1864        
  RMS dev v=0 [a0 u^1/2]        0.1399              0.1388              0.1384        
  Char temp [K]               4426.9636           4497.6730           4521.7530       
  ----------------------------------------------------------------------------------
      1   C               -0.00 -0.00  0.00   -0.00  0.00  0.00    0.00 -0.00 -0.00   
      2   O                0.00  0.00 -0.00    0.00 -0.00 -0.00   -0.00  0.00  0.00   
      3   H               -0.01 -0.01 -0.01   -0.30 -0.13 -0.18   -0.12 -0.06 -0.08   
      4   H               -0.02  0.01  0.01   -0.33  0.18  0.16   -0.43  0.25  0.20   
      5   H                0.00 -0.00 -0.00   -0.00  0.00 -0.00    0.01 -0.04  0.01   
      6   C               -0.00  0.00 -0.00    0.00 -0.00 -0.00    0.00  0.01  0.01   
      7   H               -0.00 -0.00  0.00    0.00  0.00  0.00    0.01 -0.03 -0.04   
      8   H                0.00  0.00  0.00   -0.00  0.00 -0.00   -0.05  0.00 -0.03   
      9   O                0.00  0.00  0.00    0.00  0.00  0.00   -0.00  0.00 -0.00   
     10   H               -0.00 -0.00 -0.00   -0.00 -0.00  0.00    0.00  0.00 -0.00   
     11   C               -0.02 -0.05 -0.05   -0.07  0.01  0.00    0.05 -0.01 -0.01   
     12   H                0.00  0.02 -0.09    0.00 -0.07  0.29   -0.01 -0.13  0.57   
     13   H                0.02 -0.00 -0.01    0.04 -0.01 -0.02   -0.03  0.01  0.02   
     14   C                0.00 -0.00  0.01    0.05  0.00 -0.02    0.05 -0.00 -0.06   
     15   H                0.67  0.29  0.35    0.36  0.17  0.20   -0.24 -0.11 -0.13   
     16   H               -0.47  0.24  0.22    0.51 -0.28 -0.26   -0.39  0.22  0.20   

  Vibration                       46                  47                  48          
  Freq [cm^-1]                3143.5301           3157.4927           3169.7689       
  Irrep                           A                   A                   A           
  Reduced mass [u]              1.1003              1.1038              1.1071        
  Force const [mDyne/A]         6.4060              6.4840              6.5539        
  Turning point v=0 [a0]        0.1866              0.1859              0.1852        
  RMS dev v=0 [a0 u^1/2]        0.1384              0.1381              0.1378        
  Char temp [K]               4522.8331           4542.9220           4560.5848       
  ----------------------------------------------------------------------------------
      1   C                0.00  0.00 -0.00   -0.00 -0.00  0.00    0.00 -0.00 -0.00   
      2   O                0.00  0.00  0.00    0.00  0.00  0.00   -0.00  0.00  0.00   
      3   H               -0.01 -0.00 -0.01    0.64  0.28  0.34   -0.00 -0.00 -0.00   
      4   H               -0.04  0.02  0.02    0.11 -0.07 -0.07   -0.00  0.00  0.00   
      5   H               -0.15  0.44 -0.11    0.00  0.00  0.00   -0.22  0.72 -0.15   
      6   C               -0.03 -0.06 -0.06    0.00  0.00  0.00    0.06 -0.06  0.04   
      7   H               -0.06  0.31  0.50    0.00 -0.00 -0.00    0.01  0.01  0.05   
      8   H                0.55 -0.00  0.32   -0.00  0.00 -0.00   -0.53 -0.02 -0.33   
      9   O               -0.00 -0.00  0.00    0.00  0.00  0.00   -0.00  0.00 -0.00   
     10   H                0.00  0.00 -0.00   -0.00 -0.00 -0.00   -0.00 -0.00  0.00   
     11   C                0.00 -0.00 -0.00   -0.02 -0.00 -0.00    0.00  0.00 -0.00   
     12   H               -0.00 -0.01  0.05   -0.03 -0.13  0.55    0.00  0.00 -0.00   
     13   H               -0.01  0.00  0.00    0.01 -0.00 -0.01   -0.01  0.00  0.00   
     14   C                0.00 -0.00 -0.01   -0.06 -0.01 -0.07    0.00 -0.00  0.00   
     15   H               -0.02 -0.01 -0.01    0.15  0.07  0.08   -0.00 -0.00 -0.00   
     16   H               -0.03  0.02  0.02    0.12 -0.07 -0.06   -0.00  0.00  0.00   

  ==> Thermochemistry Components <==

  Entropy, S
    Electronic S            0.000 [cal/(mol K)]        0.000 [J/(mol K)]       0.00000000 [mEh/K] (multiplicity = 1)
    Translational S        39.406 [cal/(mol K)]      164.876 [J/(mol K)]       0.06279785 [mEh/K] (mol. weight = 90.0681 [u], P = 101325.00 [Pa])
    Rotational S           26.986 [cal/(mol K)]      112.910 [J/(mol K)]       0.04300512 [mEh/K] (symmetry no. = 1)
    Vibrational S          18.830 [cal/(mol K)]       78.786 [J/(mol K)]       0.03000811 [mEh/K]
  Total S                  85.223 [cal/(mol K)]      356.572 [J/(mol K)]       0.13581107 [mEh/K]
  Correction S              0.000 [cal/(mol K)]        0.000 [J/(mol K)]       0.00000000 [mEh/K]

  Constant volume heat capacity, Cv
    Electronic Cv           0.000 [cal/(mol K)]        0.000 [J/(mol K)]       0.00000000 [mEh/K]
    Translational Cv        2.981 [cal/(mol K)]       12.472 [J/(mol K)]       0.00475022 [mEh/K]
    Rotational Cv           2.981 [cal/(mol K)]       12.472 [J/(mol K)]       0.00475022 [mEh/K]
    Vibrational Cv         19.846 [cal/(mol K)]       83.035 [J/(mol K)]       0.03162620 [mEh/K]
  Total Cv                 25.807 [cal/(mol K)]      107.978 [J/(mol K)]       0.04112664 [mEh/K]
  Correction Cv             0.000 [cal/(mol K)]        0.000 [J/(mol K)]       0.00000000 [mEh/K]

  Constant pressure heat capacity, Cp
    Electronic Cp           0.000 [cal/(mol K)]        0.000 [J/(mol K)]       0.00000000 [mEh/K]
    Translational Cp        4.968 [cal/(mol K)]       20.786 [J/(mol K)]       0.00791704 [mEh/K]
    Rotational Cp           2.981 [cal/(mol K)]       12.472 [J/(mol K)]       0.00475022 [mEh/K]
    Vibrational Cp         19.846 [cal/(mol K)]       83.035 [J/(mol K)]       0.03162620 [mEh/K]
  Total Cp                 27.795 [cal/(mol K)]      116.292 [J/(mol K)]       0.04429346 [mEh/K]
  Correction Cp             0.000 [cal/(mol K)]        0.000 [J/(mol K)]       0.00000000 [mEh/K]

  ==> Thermochemistry Energy Analysis <==

  Raw electronic energy, E0
  Total E0, Electronic energy at well bottom at 0 [K]                 -308.76468721 [Eh]

  Zero-point energy, ZPE_vib = Sum_i nu_i / 2
    Electronic ZPE          0.000 [kcal/mol]        0.000 [kJ/mol]       0.00000000 [Eh]
    Translational ZPE       0.000 [kcal/mol]        0.000 [kJ/mol]       0.00000000 [Eh]
    Rotational ZPE          0.000 [kcal/mol]        0.000 [kJ/mol]       0.00000000 [Eh]
    Vibrational ZPE        85.870 [kcal/mol]      359.278 [kJ/mol]       0.13684182 [Eh]       30033.304 [cm^-1]
  Correction ZPE           85.870 [kcal/mol]      359.278 [kJ/mol]       0.13684182 [Eh]       30033.304 [cm^-1]
  Total ZPE, Electronic energy at 0 [K]                               -308.62784539 [Eh]

  Thermal Energy, E (includes ZPE)
    Electronic E            0.000 [kcal/mol]        0.000 [kJ/mol]       0.00000000 [Eh]
    Translational E         0.889 [kcal/mol]        3.718 [kJ/mol]       0.00141628 [Eh]
    Rotational E            0.889 [kcal/mol]        3.718 [kJ/mol]       0.00141628 [Eh]
    Vibrational E          88.919 [kcal/mol]      372.035 [kJ/mol]       0.14170065 [Eh]
  Correction E             90.696 [kcal/mol]      379.472 [kJ/mol]       0.14453321 [Eh]
  Total E, Electronic energy at  298.15 [K]                           -308.62015400 [Eh]

  Enthalpy, H_trans = E_trans + k_B * T
    Electronic H            0.000 [kcal/mol]        0.000 [kJ/mol]       0.00000000 [Eh]
    Translational H         1.481 [kcal/mol]        6.197 [kJ/mol]       0.00236046 [Eh]
    Rotational H            0.889 [kcal/mol]        3.718 [kJ/mol]       0.00141628 [Eh]
    Vibrational H          88.919 [kcal/mol]      372.035 [kJ/mol]       0.14170065 [Eh]
  Correction H             91.288 [kcal/mol]      381.951 [kJ/mol]       0.14547740 [Eh]
  Total H, Enthalpy at  298.15 [K]                                    -308.61920981 [Eh]

  Gibbs free energy, G = H - T * S
    Electronic G            0.000 [kcal/mol]        0.000 [kJ/mol]       0.00000000 [Eh]
    Translational G       -10.268 [kcal/mol]      -42.960 [kJ/mol]      -0.01636271 [Eh]
    Rotational G           -7.157 [kcal/mol]      -29.946 [kJ/mol]      -0.01140570 [Eh]
    Vibrational G          83.304 [kcal/mol]      348.545 [kJ/mol]       0.13275374 [Eh]
  Correction G             65.879 [kcal/mol]      275.639 [kJ/mol]       0.10498533 [Eh]
  Total G, Free enthalpy at  298.15 [K]                               -308.65970188 [Eh]

    Psi4 stopped on: Thursday, 14 March 2019 09:41AM
    Psi4 wall time for execution: 0:31:31.94

*** Psi4 exiting successfully. Buy a developer a beer!
