[Molden Format]

[FREQ]
       -1442.5159846696
          80.7649702577
         110.8172472296
         149.8160236024
         205.4625101742
         216.9948599899
         272.0647340314
         349.1896155707
         518.2823268520
         651.9984010306
         726.1250308219
         806.6389643540
         909.9302343197
        1021.8130388851
        1063.2594609249
        1072.4782980736
        1123.2238986751
        1171.0251548153
        1201.2678088604
        1234.2997991419
        1269.8281266213
        1294.8899357124
        1324.3438488842
        1364.3706453588
        1408.6158837214
        1473.9126027920
        1479.8098044340
        1498.6201973018
        1502.7981801596
        1507.4775307314
        1510.3235895416
        1526.9999736423
        2105.2939844394
        2971.1675395965
        3059.6915746295
        3066.5215655607
        3076.8974099850
        3126.0429536869
        3142.7794693373
        3143.5301315827
        3157.4926779441
        3169.7689379327

[FR-COORD]
C          0.1049601808       -0.5743600859       -0.3604949865
O         -1.9603740354       -0.8759343943       -1.6851162287
H         -1.7749161056       -4.7613846028        1.8563996597
H          1.5599747449       -4.9638523327        1.9729234863
H          1.3217056289        5.6241372749       -2.5950148584
C          1.9066617801        3.6974001755       -2.1672955596
H          2.1427866470        2.6296450414       -3.9224841370
H          3.6834542779        3.7401982020       -1.1266574276
O          0.0205371764        2.5617709887       -0.6181229701
H         -1.6348275392        1.6415184754       -1.6570143214
C          0.0596169396       -1.1582881096        2.4262273110
H         -0.1730356251       -4.5043308589        4.7876101791
H          1.9207656339       -1.0361069395       -1.2823019763
C         -0.0896098482       -4.0226219493        2.7853657994
H          1.7480384221       -0.3838036495        3.3310008599
H         -1.6022450684       -0.2387655668        3.2340386864

[FR-NORM-COORD]
vibration 1
          -0.0594090782       -0.0870398303       -0.0275196027
           0.0275039820       -0.0463730147        0.0189234518
           0.0009447252        0.0075955587       -0.0024051265
          -0.0001447827        0.0010514279       -0.0025299423
           0.0301184664        0.0173834027       -0.0225026423
           0.0002276418        0.0134878163       -0.0115140281
          -0.0051679697       -0.0160052853        0.0123422506
          -0.0313070020       -0.0204633791        0.0291717773
          -0.0118583428        0.0437195045       -0.0055749588
           0.4434858152        0.8607048748        0.1939110541
          -0.0006267548        0.0017097520        0.0018075598
           0.0044204911       -0.0013473867        0.0020381975
           0.0124388820        0.0512660479        0.0003681928
           0.0006100415        0.0000498049        0.0016380580
           0.0042634421        0.0019221927       -0.0033580922
          -0.0024974885       -0.0051738338        0.0048544359
vibration 2
          -0.1300655344        0.0030221572       -0.0120915703
          -0.1344376002        0.0495365777       -0.0131000276
           0.3278403087       -0.2143144323       -0.0032245735
           0.3532199092        0.2049990251        0.0408661493
           0.2333127674       -0.0637430234        0.0077436104
           0.1486747886       -0.0700338003        0.0941485486
           0.3000556615       -0.1044606830        0.1357950259
           0.0474937457       -0.0941804239        0.2684570243
          -0.0208210528       -0.0063540523       -0.0671391087
          -0.0072979714        0.0435223176       -0.1247317428
          -0.1147210307        0.0216853585       -0.0097714851
           0.2574174778        0.0095122850        0.0118568625
          -0.1400556723       -0.0597266382       -0.0049036149
           0.2245062188        0.0063687420        0.0099201561
          -0.2093267564        0.2129492405        0.0035565771
          -0.2273626072       -0.1560348967       -0.0407705787
vibration 3
          -0.0124333392       -0.0362857016       -0.0550544912
          -0.0632076751       -0.0669706717        0.0378935351
          -0.2151573694        0.1516642594        0.2251287420
          -0.2213481535       -0.1171252544       -0.1255188193
          -0.0469947193        0.0303324917        0.0049014796
           0.0608410359        0.0911727354        0.1327735723
           0.4181346742        0.0758513091        0.1903805588
          -0.0956554816        0.2742356134        0.3932067887
          -0.0514820066       -0.0389346115       -0.1091448553
          -0.0094967465       -0.0682183473       -0.1467316828
           0.1287063246        0.0133110124       -0.0432794923
           0.1183804168        0.0834052327        0.0514825127
          -0.0477810932       -0.0263086393       -0.1327645255
          -0.0577063168        0.0337824139        0.0320901116
           0.2466872896       -0.0869275234       -0.1754705726
           0.2516725784        0.1496206885        0.0540379322
vibration 4
          -0.0042790989       -0.0218015862       -0.0482780401
          -0.0106898798       -0.0211328627       -0.0387391118
          -0.0038166563        0.0074277534        0.1007607162
          -0.0037225304       -0.0055504025        0.0861858556
           0.2560224644        0.2020436814        0.5358999984
           0.0031844181        0.0180770631        0.0524818265
          -0.3333273996        0.3597043149       -0.1995614298
           0.1138767042       -0.4800602200       -0.1145930549
          -0.0120271597       -0.0302663846       -0.0017309012
          -0.0137204018       -0.0048096487       -0.0113211142
           0.0178642200        0.0173228484       -0.0367946841
           0.0163813077        0.1072371052        0.0798352718
          -0.0103455620       -0.0210934672       -0.0615854396
           0.0066120689        0.0335760524        0.0614060907
           0.0281672400        0.0378662848       -0.0721729640
           0.0326199352        0.0512807195       -0.0442569323
vibration 5
          -0.0038313825       -0.0816160232       -0.0915309180
          -0.0566588811        0.0760795309       -0.0509659077
           0.1908722053       -0.1531735400       -0.0862575728
           0.1830279461       -0.0664302129        0.5555558883
          -0.2761544461       -0.0014506167       -0.0999708972
          -0.0407941179        0.0900371347       -0.0044732207
           0.0732720224        0.0378462896        0.0415841136
          -0.0377269085        0.3602594399       -0.0213297559
           0.0961277582       -0.0458685920        0.0564737340
           0.0014379827        0.0273274504        0.1003651281
           0.0074817601       -0.0497960216       -0.0779689794
          -0.3644345238        0.1806338176        0.1766632607
          -0.0500248810       -0.1345976934       -0.1501388442
           0.0081490037       -0.0202489400        0.1430926290
          -0.0058628133        0.0091431941       -0.1035498612
           0.0044290559       -0.0052830260       -0.1326459662
vibration 6
          -0.0107222655       -0.0160176811       -0.0314176540
           0.0256655368        0.0460238564       -0.1044474482
          -0.2386206441       -0.0197002240        0.5638750357
          -0.2148729371       -0.0364546070       -0.3610334456
          -0.0982355006       -0.0653716989       -0.0930769022
          -0.0286341997       -0.0232962783        0.0017176083
          -0.0198384032       -0.1053058556        0.0520565809
          -0.0158452198        0.0893477623       -0.0251971428
           0.0242897312       -0.0061879083        0.0772775873
           0.0008666972        0.0310994835        0.0610184336
          -0.0407804994       -0.0116301554       -0.0282169204
           0.5825724509        0.0575395092        0.1120195666
           0.0072269660       -0.0230308120        0.0080518743
           0.0202638113        0.0018047344        0.0748034615
          -0.0437552043        0.0336582431       -0.0596798613
          -0.0394251793       -0.0089130209       -0.0278933394
vibration 7
           0.0033015626       -0.0683521275        0.0719449675
          -0.0164185110       -0.0031026637        0.0914648583
          -0.0901354516       -0.1321874379        0.2037079894
          -0.0713045774       -0.0133144540       -0.2158142222
          -0.0818576597        0.2478186921        0.1549923232
           0.0241620632        0.2227281248       -0.0901481790
           0.0055963120        0.4434386946       -0.2276926277
           0.0682499388        0.1991147490       -0.1635407264
           0.1121221182       -0.0053306125       -0.1434444801
           0.0840542451       -0.1058099541       -0.1063555807
          -0.1278224042       -0.0627320707        0.0772974354
           0.2668595797       -0.1501484105        0.0131320197
          -0.0068177273       -0.1592798939        0.1015895661
          -0.0044067829       -0.0938658503        0.0152889770
          -0.2192042356       -0.0104033697        0.1988250515
          -0.2269005311       -0.1589303359       -0.0195575058
vibration 8
          -0.0055323076        0.0528820492        0.0273843379
           0.0470084364        0.0896810085       -0.0503642356
          -0.0101534503       -0.2492807656        0.2147385658
          -0.0076406305       -0.3235343784        0.3160210726
           0.3130825286        0.0517989346       -0.1372901892
           0.0416804863       -0.0118715020       -0.0460952620
           0.0101143757       -0.0820452868       -0.0110839910
           0.0079437545       -0.1987452467        0.0247860524
          -0.1492821972        0.2261496680       -0.1026617816
          -0.0170887027       -0.0696679669       -0.2088223087
           0.0634279297       -0.1795878035        0.0126199289
          -0.0750645767        0.0163957102        0.2174545267
           0.0305376209        0.2612885330       -0.0007046556
          -0.0063872778       -0.1986434513        0.1663519032
           0.1223312822       -0.2506085268       -0.0342919735
           0.1395131593       -0.1528338407        0.1396276658
vibration 9
           0.1483693487        0.0305851061       -0.0989648705
          -0.0048033069       -0.0508352544        0.1882142860
          -0.0738850638       -0.0923913049        0.1723876308
          -0.0594937341       -0.0916177656        0.0307588447
           0.1092139127       -0.0155936141       -0.0698815068
           0.0139704434       -0.0249810528        0.0132979856
           0.0114814378       -0.0943264431        0.0546746251
          -0.0004054751       -0.0675014041        0.0424960219
          -0.0238476802        0.0647286585        0.0294095922
          -0.0679546087       -0.0391505646        0.1219927670
          -0.0572035627       -0.0257656353       -0.1835728836
           0.0780055670        0.2248556578        0.0592587028
           0.1055662887        0.1829924355       -0.2488766052
          -0.0218479952        0.0005241464       -0.0002475989
          -0.3270966810        0.1430530452        0.1686503094
          -0.3124184215       -0.1369988665       -0.5765697463
vibration 10
           0.0020770880        0.3568349400       -0.0179227768
           0.0158265837        0.0387725312        0.0149406794
          -0.0364185234       -0.0877489916        0.1142573929
          -0.0318023350       -0.1727780808        0.1050640112
          -0.2510695918       -0.0652335794        0.1936146403
          -0.0197989149       -0.0298908374       -0.0073710379
           0.0443505854        0.0797743123       -0.0526169783
          -0.0879183375        0.0217136421        0.0837081313
           0.0164239394       -0.2342499955       -0.0747344333
           0.0392225342        0.6084995299       -0.0175528549
           0.0100050141       -0.0415098056       -0.0047272192
          -0.0040310385        0.0787038959        0.0829111931
           0.0612076429        0.3657276613        0.0521393357
          -0.0047182967       -0.0730960209        0.0417474329
          -0.0613866666       -0.0829507628        0.1820154264
          -0.0359307570       -0.1716138901        0.0658057458
vibration 11
           0.1488211081       -0.2036438529       -0.0108490704
           0.0903413225        0.3215804103        0.0491908511
          -0.0427564383        0.2494627402       -0.0854956642
          -0.0769384533       -0.0265206393       -0.1126992678
          -0.0338790828       -0.0579007115        0.1171673365
          -0.1493572839       -0.1051198748        0.0774283204
           0.0210637796       -0.0158450314        0.0377062008
          -0.2361107887       -0.1772123074        0.2316123899
          -0.1015467295       -0.1054398883       -0.1568017384
           0.0427948546        0.1577084441       -0.0673629232
           0.0564614161        0.0169016032        0.0722113552
          -0.0504139784       -0.1861649337       -0.0510885646
           0.1013035912       -0.3400424811       -0.0565058006
           0.0093279040        0.0253983858        0.0048405127
          -0.1508758712        0.2089977398        0.2871076003
          -0.1733076824       -0.0700516650       -0.3027695491
vibration 12
          -0.0270667118        0.0122656822       -0.0179869716
          -0.0460300460       -0.0378897161       -0.0557515685
          -0.1311591289        0.4564335137       -0.0539438194
          -0.1982145451       -0.3671655879       -0.0477430060
           0.0153731648        0.0116518520       -0.0276176306
           0.0268417329        0.0185688127       -0.0144225903
          -0.0000744984       -0.0013991880       -0.0042690298
           0.0382757558        0.0250401304       -0.0347421801
           0.0062045488        0.0178378446        0.0248388426
          -0.0158755493       -0.0191263404        0.0073158733
           0.0930307971        0.0082056046        0.0636817566
          -0.1960644910       -0.1431148097       -0.0172108690
          -0.0609761952        0.0356912409       -0.0835658781
           0.0421597406       -0.0176480179        0.0235226145
          -0.2037531338        0.4353244198        0.2384502449
          -0.2224836241       -0.3698093306       -0.1384987182
vibration 13
          -0.0709224641       -0.0304765199        0.1367989272
           0.0438871685        0.0234846278        0.0210689890
          -0.1171726303        0.1262508996        0.1558878699
          -0.0750225060       -0.3562803888        0.1856443871
          -0.0623598523       -0.0181791052        0.0390371540
          -0.0163580400       -0.0121175000        0.0129563703
          -0.0273444229        0.0217915578       -0.0115899342
           0.0116950957        0.0281518930       -0.0352745791
           0.0089035819       -0.0079239550       -0.0137594113
           0.1144282025       -0.0562696212       -0.1294980390
          -0.0006071324       -0.0515203178       -0.1019964826
          -0.0991110875        0.6328744723        0.0338998546
          -0.0045555610       -0.0818499778        0.2859110249
           0.0436011218        0.0742692273       -0.0961226133
          -0.0006517225        0.0411398294       -0.1916209592
          -0.0504210879       -0.3482964004        0.1274543809
vibration 14
           0.0368148523       -0.0112539542       -0.0384706086
          -0.0433591353       -0.0066908534       -0.0470555381
           0.0161917483       -0.0601266271        0.0679436661
           0.0918149873        0.2692951942        0.0658043092
           0.0854549588        0.0415350834       -0.0467116993
           0.0308086496        0.0293176784       -0.0353235654
           0.0541944612       -0.0026746543       -0.0089632755
          -0.0136608623       -0.0302664063        0.0391092172
          -0.0313046579       -0.0091354385        0.0185822213
          -0.0883045031        0.0477242415        0.1072085608
           0.0493239582       -0.1507370499        0.1053568235
           0.1200197776        0.3647367556        0.0065751293
          -0.0418404216       -0.0337105369       -0.1739602555
          -0.0265025018        0.1627105186       -0.0497049516
          -0.0711798724       -0.4484477812        0.5794378777
          -0.0446343157       -0.2545382405        0.0314659541
vibration 15
           0.0255483863       -0.0010976799       -0.0210685557
          -0.0004297226       -0.0074114636       -0.0194753240
          -0.0601159809       -0.2967700373        0.1827751754
           0.0183155303       -0.3008815155        0.1949955127
           0.2074198837        0.0926708600       -0.0506871847
          -0.0024196415        0.0318172505       -0.0429396174
           0.1487811779       -0.0140380116        0.0103122913
          -0.1349604182       -0.1281554321        0.1900726302
          -0.0144580753       -0.0086634919        0.0125171970
          -0.2862920570        0.0682986512        0.3819587274
           0.0116521608        0.1522131228        0.0404174494
           0.0244844299        0.3097065826        0.0333217161
          -0.0459179797       -0.4035534931        0.0411951727
          -0.0036736272       -0.1084092947       -0.0768492007
           0.0028850185        0.0071422321        0.1852609672
          -0.0087084820        0.0333640308        0.1371464894
vibration 16
          -0.0096266861        0.0049042806       -0.0039345094
          -0.0433717050       -0.0268724471       -0.0275192361
          -0.0087686000       -0.3265171146        0.1240773259
           0.0704927256       -0.0288368500        0.1300014584
          -0.2353541970       -0.1345329275        0.0541587144
          -0.0880155090       -0.0790617731        0.1293751539
          -0.2640162460       -0.0592756025        0.0810392606
           0.0966637236        0.0932762276       -0.1846669331
           0.0966198770        0.0735585384       -0.0584817703
           0.3631709293       -0.0775477670       -0.4076059805
           0.0668049848        0.0869104214        0.0518764996
           0.1038471438        0.2153799029        0.0216446456
          -0.0796498356        0.0925612160       -0.1678008000
          -0.0369384771       -0.0554141446       -0.0546744760
          -0.0445320345       -0.0601723250        0.3772806520
          -0.0399472412        0.0526828801       -0.1235152026
vibration 17
           0.0315077877        0.0389984879       -0.0972381105
          -0.0030549306       -0.0444394395        0.0060746107
          -0.0289481894        0.2988663763       -0.0330373823
          -0.0741089753       -0.0976584446       -0.0521897330
           0.0909650045        0.0118936995        0.1065696286
          -0.1640422835       -0.0801479577        0.0708915001
           0.1268327741        0.0090406830        0.0454293354
          -0.2818218461       -0.1506686349        0.2929104409
           0.1638401401        0.1052143627       -0.0926947028
          -0.2395093433       -0.0295361353        0.3837716612
          -0.1019567293       -0.0594416105        0.0313846319
          -0.1314581645       -0.0524428432       -0.0075170311
           0.0449274386       -0.0091717792       -0.0452667462
           0.0548203880        0.0498790516        0.0258006014
           0.0415389791       -0.1383300190       -0.1591369063
           0.0391142454       -0.2027155999        0.4760002536
vibration 18
          -0.0541384833       -0.0170041840        0.0880025491
          -0.0013599444       -0.0039020354       -0.0271884516
           0.0390042480       -0.1619362250       -0.0294168372
           0.0592903849        0.1912174223       -0.0057263310
          -0.1276152952       -0.0171829512        0.3676521276
          -0.0251818222       -0.0847836162       -0.0677746785
           0.4167609138        0.3149245556       -0.2488672169
          -0.2450666118        0.0666118940        0.3073862833
           0.0340707472        0.0448660773        0.0097247101
          -0.1012060693       -0.0410268842        0.2042952053
           0.0837532732       -0.0111195253       -0.0302880331
           0.1081953682       -0.0174063751        0.0024043687
          -0.0184860926        0.2209545082        0.0620803991
          -0.0526109269       -0.0035668413        0.0012789349
          -0.0361205997        0.1573023979        0.0369272935
          -0.0402537181        0.0232505360       -0.3150164683
vibration 19
          -0.0559214523        0.0505443847        0.0872026147
           0.0088035592       -0.0170409051       -0.0169542439
           0.0621787582       -0.1050115953       -0.0877815126
           0.0476621551        0.2561046498       -0.0545342260
           0.4252144148        0.1644075014       -0.3385775368
          -0.0902276943        0.0883826118        0.0296445869
          -0.1160207839       -0.3175802649        0.2700466499
          -0.1120716406       -0.3315617178        0.0854256952
           0.0676356037       -0.0262757176       -0.0319581184
          -0.0164094319        0.0230753752        0.0345700286
           0.0845665606       -0.0416359267       -0.0621563725
           0.1092049704       -0.1102992611        0.0054208723
          -0.1157873070       -0.2307765770        0.1150996280
          -0.0574201548        0.0088436857        0.0312942872
          -0.0399498662        0.1526035252       -0.0044744685
          -0.0402210065       -0.0772237492       -0.2727304953
vibration 20
           0.0288191835       -0.0707518951        0.0050254438
          -0.0563358783        0.0186841336       -0.0163412788
          -0.0421098284        0.0013727010        0.0679688595
           0.0022379304       -0.1110271608        0.0550438794
           0.2874029290        0.1174280765       -0.1568341514
          -0.0424488462        0.0453636383       -0.0264860072
           0.1040829489       -0.0776180598        0.0627339999
          -0.1077508526       -0.1791868551        0.1002140864
           0.0282284764       -0.0518986063        0.0173119615
           0.1171427213       -0.0949070109       -0.0770607829
          -0.0235905184        0.0194875359        0.0495656896
          -0.0297849772        0.1233348672       -0.0041005041
           0.2814248579        0.7745171605        0.0985758626
           0.0195802846       -0.0106186734       -0.0359805744
           0.0285414795        0.0234310648       -0.0509560781
           0.0149328835        0.1464865989       -0.0172189970
vibration 21
          -0.0039707904       -0.0379338397       -0.0414051411
           0.0158716147        0.0116976142        0.0112018541
           0.0240985101       -0.2546702695       -0.0012518605
           0.0764473125        0.2099955307        0.0671774980
          -0.0846763324       -0.0615984599       -0.0671245110
           0.0361119998        0.0001385594        0.0490255073
          -0.1671481557       -0.0164194095        0.0287149312
           0.1775213212        0.1040970012       -0.1898957150
          -0.0089441913       -0.0082812597       -0.0419048948
          -0.2727986339        0.0097628350        0.2959811178
           0.0450483056        0.0041956271        0.0270549143
           0.1472001843        0.0225773575       -0.0003469926
           0.1345358818        0.2670829694        0.0647886483
          -0.0846166287        0.0047175233       -0.0159979668
          -0.0066320751        0.4089311514       -0.2192372569
          -0.0500578790       -0.4000841571        0.2860861052
vibration 22
           0.0035738874       -0.0161609561        0.0617363152
          -0.0373031459       -0.0077263458       -0.0374859788
          -0.0125386191        0.1451899118       -0.0089984780
          -0.0310000000       -0.0995710291       -0.0388051709
          -0.1312576302       -0.0766679611       -0.0444738084
           0.0347456646       -0.0034028088        0.0616698046
          -0.2317980914       -0.0411289705        0.0498097506
           0.1674430879        0.1055231770       -0.1656831709
           0.0030352809        0.0131647438       -0.0671601981
          -0.3549428440        0.1205455672        0.4458927955
           0.0013040663       -0.0134485488       -0.0203788690
          -0.0651248001        0.0207749653        0.0040419607
           0.1641345307        0.1019593850        0.3321572294
           0.0450315116       -0.0052749990        0.0046400213
           0.0055289989       -0.2324808522        0.1534538453
           0.0254371244        0.3254249571       -0.3485599490
vibration 23
           0.0815216670       -0.0068530333       -0.0156187127
          -0.0921273574       -0.0054716561       -0.0179579542
           0.0771387114       -0.0397859719       -0.1033066635
          -0.0347835869        0.0624957795       -0.0612691011
          -0.0215068980        0.0037934766        0.0702770267
          -0.0023542418       -0.0089961055       -0.0168967707
           0.0203217952        0.0040079427       -0.0175776353
          -0.0504424579        0.0055400687        0.0610907315
          -0.0098817936        0.0181716838        0.0208866187
           0.1777051484        0.0285490622       -0.1585734503
           0.0318775407        0.0647435396       -0.0887104943
           0.0521115063       -0.1768273464        0.0067074494
           0.3915277748       -0.1496906168        0.6369970556
          -0.0237765491        0.0041415761        0.0481000302
           0.0149746952       -0.2075973446        0.1757139276
          -0.0471775237       -0.3635339959        0.2141587596
vibration 24
           0.1033786107        0.0540866001       -0.0288495142
          -0.0741208591       -0.0191778257       -0.0183151097
          -0.0904929343        0.0475380625        0.0495732517
           0.1112579770        0.0785122402        0.1116964626
          -0.0870123132       -0.0144337122        0.0963560067
           0.0031515415       -0.0082105697       -0.0110442301
          -0.0476599276       -0.0430513367        0.0108254476
          -0.0584295496       -0.0094176447        0.0857255105
          -0.0066069383        0.0293042328        0.0047612639
           0.1338365091        0.1195218991       -0.1231583079
          -0.0082335850       -0.1181608458        0.1096008609
           0.0738747589        0.2281514708        0.0116958774
           0.1943265751       -0.3451476757        0.3050299189
          -0.0157581000       -0.0133696496       -0.0502109055
          -0.0084177451        0.4905056623       -0.3769223790
           0.0771539891        0.3069806468       -0.1878504635
vibration 25
           0.0163760038       -0.0095148370        0.0177838565
          -0.0047460901        0.0017689202       -0.0063496543
          -0.1337497406        0.5220411333       -0.2516112698
           0.2075466747        0.4642985139       -0.1915321995
           0.0047505664       -0.0029487670       -0.0153678624
           0.0019990599       -0.0003849500        0.0013049985
          -0.0004519836        0.0140746417       -0.0086452234
           0.0064700768        0.0056120028       -0.0063748775
          -0.0030451860       -0.0037582065        0.0008055343
           0.0060180234        0.0027296806        0.0126072820
          -0.0067720112        0.0314863049       -0.0213466291
           0.0674138456        0.5113095399        0.1754470634
          -0.0348268459        0.0370100613       -0.1012614450
          -0.0110574485       -0.1389454652        0.0314830643
           0.0031442849       -0.0526118680        0.0347256804
          -0.0091581107       -0.0725706407        0.0920215350
vibration 26
          -0.0486849207        0.0136296799       -0.0567341492
           0.0210713316        0.0022455955        0.0206351214
          -0.0081761803        0.0228606914       -0.0042149495
           0.0094493984        0.0202882149       -0.0195335101
           0.4654495155        0.0749667278       -0.1767071519
          -0.0673399983       -0.0497734151        0.0425665912
           0.3207348919        0.3018840503       -0.1256018498
           0.1727587799        0.3077683744       -0.3611799166
          -0.0090378525       -0.0109519115        0.0147355056
          -0.0231170696        0.0068968940       -0.0523878337
           0.0129166209       -0.0354195067       -0.0152751633
          -0.0131113604        0.0400689210        0.0066875274
           0.0784663414       -0.0716450666        0.2204264176
           0.0031502371       -0.0056581878       -0.0016697490
          -0.1933460386        0.1509168069        0.2245567713
           0.1900951845        0.2036322728        0.0970478313
vibration 27
           0.0020192593        0.0206693885       -0.0125196056
          -0.0003200145       -0.0040501592        0.0001696908
          -0.1068186695        0.0974424991        0.1027597715
           0.1095402966        0.0483964510        0.1601740278
           0.2327767936        0.0399505188       -0.0698488017
          -0.0287552507       -0.0258133253        0.0185498990
           0.1139932083        0.1342063363       -0.0604263255
           0.0702957350        0.1779994137       -0.1496966243
          -0.0054480717       -0.0050331230        0.0056861141
          -0.0093650180        0.0405730887       -0.0154606363
          -0.0005916469        0.0388289901        0.0645740377
           0.0420613692       -0.0886991740       -0.0233879604
           0.0041458997       -0.0546571211        0.0230888192
          -0.0030257118       -0.0041368287       -0.0131899694