[Molden Format]

[FREQ]
        -533.9292595502
          71.0395810073
          82.8557374209
         165.5920520685
         193.4001132297
         205.3305328144
         208.9105209466
         227.4419227175
         297.1064649045
         301.2170149652
         340.8255301422
         451.9107093250
         555.7763932502
         579.6395866241
         637.1020314961
         649.4110714299
         668.8745904274
         876.5534835137
         944.3361607234
         975.3223082957
        1024.0729214304
        1102.7983837562
        1141.1667591758
        1142.4183260345
        1158.6804159279
        1172.1667951010
        1180.6501990298
        1237.8240154133
        1324.7539119360
        1404.3374449028
        1458.4493921496
        1477.2966076637
        1491.9497695561
        1512.7448801720
        1520.0515491430
        1523.4581296625
        1538.8511585046
        1542.1022033805
        1549.4133253590
        1671.4153321427
        1873.2915258675
        3078.5392618294
        3094.4649502761
        3107.1603629081
        3153.6496397655
        3191.0925314490
        3192.7073967420
        3209.7052229965
        3218.0343815751
        3241.8621106996
        3243.5289895330

[FR-COORD]
C          0.8446966015       -0.5695947992        1.6418611883
O          0.9092601834       -0.2891092185       -1.5335239833
C         -3.0706821955        0.8679649015       -0.8034325352
H         -4.3458396287        2.4614920390       -0.5234833156
N         -0.9522691052        1.4316485297       -2.0030431491
O         -1.1672192015        0.4203506914        2.4580544377
N          2.7393805321       -1.7126729992        2.5543407312
C         -0.0104528068        4.0267827715       -2.1155640361
H          1.3804931855        4.1209165614       -3.6307753440
H         -1.5868274103        5.2932734707       -2.5234807961
H          0.8700255993        4.5031566739       -0.3049410469
C          4.7781429830       -2.5428409980        0.8875851441
H          4.1312373523       -3.9684867322       -0.4688180315
H          5.6005333898       -0.9673934152       -0.1753392103
H          6.2473156262       -3.3829472829        2.0669799628
C         -4.1848842069       -1.7158131331       -0.8119717646
H         -5.2544922457       -2.0020526775        0.9289734777
H         -5.4867855540       -1.8670452806       -2.4202245855
H         -2.7273573484       -3.1609474930       -0.9754653901

[FR-NORM-COORD]
vibration 1
           0.0274693075        0.0321189723       -0.3970406460
           0.0488088431       -0.0392840980        0.2281421908
           0.1966362477       -0.0622953248        0.4385510534
           0.1820911022       -0.0770695728        0.5280692916
          -0.0228343024       -0.0059034292       -0.1494050344
          -0.1196570507        0.0282580885       -0.2116128851
          -0.0988702768        0.0461208989       -0.0216086161
           0.0152022329       -0.0192687897        0.0424428533
           0.0380049615        0.0598597151        0.0663841456
           0.0169727475       -0.0231902387        0.0037042750
          -0.0359350485        0.0158136020        0.0663358727
          -0.0137211680        0.0164566828        0.0291952579
           0.0131576684       -0.0004343411        0.0345011499
           0.0091048743        0.0000354291        0.0228260473
          -0.0452190590        0.0327280941        0.0772578999
           0.0017491975       -0.0033849579        0.0136192303
          -0.0867173459       -0.1247304973       -0.0613104068
           0.0836178247        0.2322156816       -0.0701746555
          -0.0665078387       -0.0659406613       -0.0632040040
vibration 2
          -0.0053392400       -0.0315464225       -0.0024773771
          -0.0395612101       -0.0609441140       -0.0140076249
          -0.0113614464        0.0302330809        0.0036760867
           0.0346161320        0.0634762773        0.0251269775
           0.0018726978       -0.0125469006        0.0072379792
          -0.0231606608       -0.0710697435       -0.0013939504
           0.0366069294        0.0394442337       -0.0020440009
           0.0683449941       -0.0354387147        0.0311509215
           0.0625742443       -0.0547806031        0.0246136957
           0.1000144961        0.0117297862        0.0555129220
           0.0923279893       -0.0797861043        0.0315593994
           0.0600033243        0.0823848044        0.0071956643
           0.1913273597       -0.2956576857        0.3409977601
          -0.2887017513        0.0092546435       -0.3697711496
           0.2888945104        0.5519333534        0.0568901003
          -0.0869368907        0.0632593894       -0.0294867077
          -0.0881105546        0.0682599207       -0.0294269972
          -0.0981270753        0.1257372063       -0.0263682323
          -0.1282497237        0.0247079301       -0.0566331335
vibration 3
          -0.0081423552       -0.0286646594        0.0023718606
          -0.0380508498       -0.0725401545       -0.0036666057
          -0.0113861403        0.0240562409        0.0059212644
           0.0359357206        0.0604646691        0.0163879813
           0.0018810409       -0.0291775994        0.0037423259
          -0.0221300191       -0.0589961053        0.0025138509
           0.0303278722        0.0332982464        0.0019747103
           0.0731012856       -0.0552334730        0.0034058953
           0.0751730605       -0.0955128069        0.0029176878
           0.1090118381       -0.0101744999        0.0046779614
           0.0887089177       -0.0795778839        0.0024471041
           0.0615270291        0.1249547881       -0.0074137205
           0.0225050494        0.4963976623       -0.3777683325
           0.3333176272        0.2664576380        0.4107083707
          -0.1314316786       -0.2871956803       -0.0608751504
          -0.0898397250        0.0586981851       -0.0069078748
          -0.0963434234        0.0821586406       -0.0070958339
          -0.0967528393        0.1073312823       -0.0059428745
          -0.1332997446        0.0157758239       -0.0153698121
vibration 4
           0.0129550210        0.0883548978       -0.0059381103
          -0.0454647361       -0.0931427754       -0.0250116735
          -0.0225495540       -0.0486775934       -0.0617462410
          -0.0263477026       -0.0519124015       -0.0659907732
          -0.0049616133       -0.0501343354       -0.0308178907
           0.0170009869        0.1110466328       -0.0269849874
           0.0741021813        0.1983462821        0.0076079616
           0.0656453531       -0.0577855076        0.2491313990
           0.2842818803       -0.0048678075        0.4550510188
           0.1539046119        0.0064383251        0.1075561522
          -0.1849168602       -0.1978373688        0.4078728101
          -0.0961625823       -0.0508577380       -0.0807944084
          -0.3128752628       -0.0195087747       -0.0097817505
           0.0058878110       -0.1618997699       -0.1666198232
          -0.1169896085       -0.1666052422       -0.1378810377
           0.0098644420       -0.0615255695       -0.0437383761
          -0.0432525087       -0.0345116393       -0.0716706695
           0.0600788508       -0.1119536978       -0.0796319737
           0.0314555343       -0.0470574713        0.0311392927
vibration 5
           0.0391410045        0.0022594727       -0.0261222538
          -0.0266977390       -0.0021452917       -0.1293431789
          -0.0138560547        0.0007544923        0.0188937281
           0.0118802255        0.0063134222        0.1012018320
          -0.0422380628        0.0110625665       -0.0337601336
           0.0364122903        0.0040698430       -0.0522576186
           0.0378228767        0.0479999314        0.0135659356
          -0.0626355876        0.0245641470        0.0556209456
          -0.1950188721        0.1459301169       -0.0587256849
          -0.1065428778        0.0454048810        0.2887191243
           0.0909720648       -0.1006102199        0.0136618563
           0.0844608632       -0.0966454041        0.1580763171
           0.0844109263       -0.0838649098        0.1450681416
           0.2392059544       -0.1598054583        0.1830700489
          -0.0363516582       -0.1573495799        0.2657863868
          -0.0486821373        0.0171434938       -0.0152178697
           0.2617629060       -0.1364176055        0.1509397789
          -0.3416924755        0.1814148870        0.2077952884
          -0.0827405413        0.0260531795       -0.4119863821
vibration 6
          -0.0078326653        0.0084845304        0.0063727399
          -0.0151645798       -0.0128652808       -0.0201449858
           0.0047845578       -0.0044309258        0.0172685432
          -0.0078714305       -0.0178439284        0.0280670235
          -0.0040330188        0.0062462519        0.0068908894
          -0.0109660332        0.0060379026       -0.0000152487
           0.0015349624        0.0278945293        0.0075073834
           0.0251302695       -0.0073850469        0.0072353259
          -0.3336355641        0.1193631971       -0.3162835602
          -0.0460176018        0.0671868230        0.5125775532
           0.4655079790       -0.1987256737       -0.1582904836
          -0.0201330715       -0.0013812420       -0.0043903372
          -0.0501695520        0.0072784324        0.0014038025
          -0.0068368902       -0.0131922206       -0.0111039985
          -0.0240739410       -0.0205905745       -0.0134744495
           0.0278582135       -0.0162528199       -0.0131011699
          -0.1942245123        0.0524625235       -0.1387055961
           0.2377728400       -0.0960525435       -0.1761377405
           0.0540588740       -0.0162618959        0.2324762401
vibration 7
           0.0110572509       -0.0189422323       -0.0416964068
          -0.0107492192        0.0008422066       -0.0786658501
          -0.0085241805        0.0073103551       -0.0189121331
           0.0016353102        0.0167891666       -0.0257168520
          -0.0187258765        0.0043381528       -0.0376369966
           0.0344833144        0.0224863328       -0.0411258877
          -0.0254446511       -0.0633092624       -0.0287911013
          -0.0395711067        0.0213594911        0.0631053964
           0.1038521686        0.0429566834        0.1975369804
          -0.0163013260        0.0037291928       -0.0810742838
          -0.2197050428        0.0205881076        0.1513529832
           0.0810765746       -0.0058431720        0.0805592592
           0.1975752914       -0.0254089661        0.0455460381
           0.0904965320        0.0209138334        0.1274467606
           0.0424428051        0.0388453891        0.1608860040
          -0.0304101867        0.0187754094        0.0799382264
          -0.3928453160        0.2796452706       -0.1000137081
           0.2980227288       -0.1831385902       -0.1681678310
          -0.0304001303       -0.0356026522        0.5756152708
vibration 8
           0.0593336852        0.0151283139        0.0154952592
           0.0185425661        0.0340489690        0.0451810817
          -0.0028715896        0.0060688059        0.0445312791
           0.0197685638        0.0211000987        0.0705804070
          -0.0058416879        0.0119772431        0.0452935187
          -0.0089504725       -0.1244955560        0.0349569233
           0.1353138527        0.1452452599        0.0285652497
          -0.0814271883        0.0305886038       -0.0932674810
          -0.0138498856       -0.0441689351       -0.0357854892
          -0.1074757805       -0.0634271994       -0.2825579344
          -0.1821572152        0.2202602770       -0.0929363304
           0.0090008182       -0.1320090147        0.0119846419
          -0.1865915078       -0.1094480099        0.0818183894
           0.1685496218       -0.2676829394       -0.0676082341
          -0.0602565458       -0.2561196996        0.0099908505
          -0.0886318483        0.0448361316       -0.1051819903
          -0.4060050995        0.0979345547       -0.2919475405
           0.1869638332        0.0938529425       -0.3345259235
          -0.1247029617       -0.0200037984        0.1503829815
vibration 9
          -0.0082868881       -0.0022588842       -0.0335816176
           0.1546606632        0.0719767138        0.0495259413
           0.0346695393       -0.0226734734       -0.1465012688
           0.0552628263        0.0190688800       -0.2856639626
           0.0904924342       -0.0305639758       -0.0592001639
          -0.0955282486       -0.1401259869       -0.0819234347
           0.0181269166        0.0715714066        0.0169125572
          -0.0272210566        0.0297517670        0.0512543376
          -0.1237418637        0.2275562137       -0.0249889437
          -0.1154856127       -0.0153935658        0.2554166500
           0.0535453485       -0.0777055773        0.0391177636
          -0.0544656118       -0.0126976631       -0.0346750432
          -0.1521172879       -0.0048163747        0.0031622047
          -0.0237051305       -0.0612103213       -0.0839821722
          -0.0502069989       -0.0568211548       -0.0717378527
          -0.0887250649        0.0351609477        0.1905338504
           0.0838946202        0.3312022321        0.3465403432
          -0.2729122249       -0.1016288310        0.3535735853
          -0.1872737068       -0.0732950540        0.2484482788
vibration 10
           0.0670519585        0.0441738839       -0.0180782409
           0.0958408339       -0.0040784739        0.1864670702
          -0.0239554174       -0.0647679599       -0.0927538633
           0.0124996477       -0.0185754275       -0.1940373954
           0.0380511843       -0.0972142376        0.0102986977
           0.1371127505        0.1823453121        0.0265613349
          -0.0082278862       -0.1151762308       -0.0200317620
          -0.1270592217       -0.0408845798        0.0545606121
          -0.2827491735        0.1693233582       -0.0763655876
          -0.2606175939       -0.1335242819        0.2878501821
           0.0001210220       -0.0882422019        0.0029776569
           0.0508865104        0.0201428921       -0.0318879296
           0.1480105125        0.0117238951       -0.0717787301
          -0.0174479819        0.0840358026        0.0086814776
           0.0866901517        0.0747046995       -0.0367338276
          -0.2149528291        0.0272774639       -0.1375854512
          -0.2650479985        0.0830660845       -0.1572808439
          -0.2267296088        0.2178386541       -0.1473355015
          -0.3530079586       -0.1111573393       -0.1737526784
vibration 11
          -0.0180085424        0.0412788899       -0.1837505090
          -0.1013142937        0.0411580347        0.2325526467
          -0.1582803806        0.0381504479       -0.1414836248
          -0.2460367542       -0.0019777190       -0.3064547187
          -0.0645380606        0.0589031854        0.0603826977
           0.0035994267       -0.0320195141        0.0388243023
           0.0053034204        0.0491804725       -0.1746838297
           0.1138415688       -0.0113550416       -0.0079591337
           0.0749363953       -0.1519687379       -0.0536514932
           0.2078389236        0.1196308783        0.0367047691
           0.2115738582       -0.0815880322       -0.0394964668
           0.1285558149       -0.0870748255        0.0584238281
           0.2535659293       -0.1521776304        0.0607027984
           0.3251201285       -0.1805968102        0.0601772464
          -0.0274291562       -0.0729252281        0.2663434329
           0.0417763604       -0.0543166260        0.0233041478
           0.1528425834       -0.0389294702        0.0937981921
          -0.0210948518       -0.2744909037        0.0937586291
           0.1579495477        0.0612113047        0.0634626082
vibration 12
           0.0407972731        0.0817770321        0.0282221418
           0.1085899356        0.2409084631       -0.0945475017
          -0.0527182281       -0.1282534195        0.0733938014
          -0.0783773951       -0.1554602393        0.1365407756
          -0.0941811882        0.0263970092        0.0287406582
           0.0022617594        0.0119440933       -0.0062590001
          -0.0225298824       -0.0261770487        0.0007026682
           0.1710109925       -0.0780649807       -0.0147748155
           0.2323874301       -0.4105668932        0.0202171622
           0.4162269065        0.2061454359       -0.0846027770
           0.2514731123       -0.1972249186       -0.0229868390
          -0.0143697565       -0.0004456988        0.0080429975
          -0.0219753267       -0.0021011431        0.0140672163
          -0.0296170125        0.0035146596        0.0043832458
          -0.0068913071        0.0072734135        0.0038220176
          -0.1683012771       -0.1367678434        0.0019217402
          -0.2202875853       -0.0986645657       -0.0207158884
          -0.1530472993       -0.0302952683       -0.0194628818
          -0.2467889897       -0.2219593751        0.0068635619
vibration 13
           0.0381250595       -0.1662163411       -0.1364940305
          -0.0941387263       -0.0946301848        0.0084346428
          -0.0352788545       -0.0813166956       -0.0569769700
          -0.1266108516       -0.1523568574       -0.0499670673
           0.0576957536        0.1455446266        0.2360524383
           0.1437198010        0.0364728845       -0.2113461187
           0.0334712817        0.0135782531        0.1821589082
           0.0687911157        0.2082231027       -0.0308921406
          -0.0141234351        0.0171891511       -0.1222247529
           0.0229599540        0.1120618012       -0.1518673013
           0.1360875474        0.4822157507       -0.1367506373
          -0.0873376605        0.0501127662        0.0239470442
          -0.1793316362        0.1004330607        0.0135210950
          -0.1853759585        0.0932119854        0.0088227950
           0.0289826001        0.0109118484       -0.1499749294
          -0.0957916152       -0.1423049441        0.0116017261
          -0.0496707782        0.0403382003        0.0755458691
          -0.1784720982       -0.1916783235        0.0841455468
          -0.1805240927       -0.2344639674        0.0865071847
vibration 14
           0.1915702010        0.0203002190       -0.0261144596
          -0.0255667941        0.0928932620        0.0807060826
          -0.1691461615        0.1420548892       -0.0251883940
          -0.1429388254        0.1779879283       -0.0880894404
          -0.1589940969       -0.0337682793       -0.0968806153
           0.1061132264       -0.0984028351       -0.1652587533
           0.0562911058       -0.1005501807        0.2467586922
          -0.0426841557       -0.1369908857        0.0144346369
          -0.0007169183       -0.1485231801        0.0544965295
           0.0721845412        0.0286753882        0.0803602585
          -0.0304032797       -0.3364989066        0.0606040664
          -0.0558146586        0.0236809176        0.0074951858
          -0.1943474597        0.1026813837       -0.0091327338
          -0.2244959388        0.1047925869        0.0000455308
           0.1148191177       -0.0207660774       -0.2393059684
           0.0738450483        0.1085296434       -0.0127319490
           0.0976862570       -0.0998389293       -0.0363681994
           0.1539126976       -0.0981881885       -0.0582121023
           0.3295097802        0.3671706978       -0.0036074155
vibration 15
          -0.1769679724       -0.2340743554       -0.1208098181
           0.1893165258        0.0921298717       -0.0863524267
          -0.0820778306        0.0910926358        0.0471328667
           0.0250917948        0.1944953874       -0.1055530202
           0.0357371361       -0.0960711414        0.3107657920
           0.0297829083        0.0871248745       -0.0994245960
          -0.0197696996        0.1291024399       -0.0872261921
          -0.0846627797       -0.2479241892        0.0540753270
          -0.1458081479       -0.3940673385       -0.0101839346
          -0.1183447737       -0.3320319016       -0.0596027539
          -0.0144043767        0.0089195014       -0.0449895586
          -0.0378676630        0.0252861250        0.0213919890
          -0.0006483604       -0.0165699479        0.0461772705
           0.0576024256       -0.0334587419       -0.0001809923
          -0.1057486777        0.0320690460        0.1113577615
           0.0583101577        0.1164195290        0.0026299597
           0.0533421578       -0.1199792409       -0.0435900924
           0.1552518341        0.0196305242       -0.0642996372
           0.2436158802        0.3043261198       -0.0392884207
vibration 16
           0.0711554309        0.0650719172       -0.4034363131
           0.0564703539       -0.0298596737       -0.1184317704
           0.0217033579       -0.0143254314       -0.0441249462
           0.0343108889        0.0007354207       -0.1003495677
           0.0084414496       -0.0150177072       -0.0533664083
           0.3057363720       -0.2034129194        0.3830490508
          -0.1721620060        0.0810247532       -0.0022023733
          -0.0087985728       -0.0089318781       -0.0031226151
           0.0071307956        0.0674345781        0.0172241114
          -0.0355930783       -0.0368619341        0.0258211007
          -0.0530164760       -0.0591868365        0.0310895874
          -0.3090396115        0.1412928343        0.1567246049
          -0.2439810330        0.1211820874        0.1326698903
          -0.2598886702        0.1131716338        0.1358800449
          -0.2785274556        0.1379923553        0.1188241491
           0.0088306038        0.0150529322       -0.0192879364
           0.0014385732        0.0565055527       -0.0188918691
          -0.0109251285        0.0784560536       -0.0137674996
          -0.0609946141       -0.0538102208       -0.0262952812
vibration 17
           0.2601856405        0.5639925330        0.0050343930
          -0.0217350163       -0.1348891782       -0.0977174531
          -0.0062122678        0.0101553344        0.0025155130
           0.0478655624        0.0617777397       -0.0885304506
           0.1223313609       -0.0337265534        0.3419600656
          -0.1042752874       -0.1283705405       -0.1508137601
          -0.1348032978       -0.1202176865       -0.1061681055
          -0.0377857042       -0.0822501904        0.0471480652
          -0.1388980922       -0.1811903223       -0.0522783604
          -0.1689031693       -0.2917883914       -0.0798552555
           0.0205655127        0.3214564837       -0.0819838738
          -0.0384155184        0.0044434078        0.0130900082
           0.0832488154       -0.0284276252       -0.0191707255
          -0.0102580730        0.0148043478        0.0528583854
          -0.0753012029        0.0521440074        0.0942939608
           0.0142318230        0.0320396204       -0.0009478677
           0.0552822299        0.0035300071        0.0197503685
           0.0007809589       -0.0172516502        0.0171739008
           0.0726234651        0.0906848355        0.0100829152
vibration 18
          -0.0002675560        0.0182073928       -0.0093544661
           0.1494328015       -0.1004361903       -0.0197411650
          -0.1332773493        0.0977112499        0.0473649165
           0.0596951456        0.2575272504        0.0711831037
          -0.0030249894       -0.0487076285       -0.0326838987
          -0.0241734499        0.0107683180        0.0283056583
          -0.0060764898       -0.0025770523        0.0027141052
           0.0481832225        0.1278741752       -0.0137545130
           0.0417543872        0.2015816896       -0.0154684756
           0.0063642733        0.0847756690       -0.0003423842
           0.0139119020        0.1350888183       -0.0002422807
           0.0154287848       -0.0065184736       -0.0143505247
           0.0196439725       -0.0082704253       -0.0146638616
           0.0136275967       -0.0032543430       -0.0100556814
           0.0124384899       -0.0014919530       -0.0072476330
          -0.1289745302       -0.0640514796        0.0218400089
          -0.0364860319       -0.5484496978       -0.0045503252
           0.0542687687       -0.4279361918       -0.0872727014
           0.3216404983        0.3835557301       -0.0288409729
vibration 19
           0.0021682332       -0.0062380795        0.0346446156
          -0.0079926953        0.0112035668        0.0305995928
           0.0009858698        0.0040978969       -0.0531796848
           0.2962530840        0.0849836544        0.7875596850
           0.0099715580        0.0181618743       -0.0090578445
           0.0275632005       -0.0063139598       -0.0165938036
           0.0051587335        0.0034998245       -0.0453683421
          -0.0090724511       -0.0327632949        0.0040800463
          -0.0256157008       -0.0269414704       -0.0119234413
          -0.0261511468       -0.0618945297       -0.0186347456
           0.0037070600        0.0057170160       -0.0115158088
          -0.0379356624        0.0170159249        0.0223943610
          -0.0125536188        0.0022469935        0.0244808319
          -0.0069503045        0.0005595607        0.0202979038
          -0.0566912135        0.0217902510        0.0499970967
          -0.0221393698       -0.0055248228       -0.0577968485
           0.1531079612        0.1968447224        0.0856603751
          -0.1202945727       -0.3758695041        0.0646741802
           0.0601366366        0.0527536089        0.1369832197
vibration 20
          -0.0372021543        0.0502214038       -0.1998003218
           0.0393458485       -0.0195483377       -0.0759998271
          -0.0099784784       -0.0031973558       -0.0321480325
           0.0191049358       -0.0203818819        0.1782120688
          -0.0119677623        0.0682594341        0.0320976349
          -0.1147525553        0.0571127690        0.1414702907
          -0.0614939950       -0.0049276700        0.2588512697
          -0.0200355754       -0.0719114143        0.0270972914
          -0.0908131174       -0.1470241111       -0.0440293008
          -0.0420964622       -0.1275077248       -0.0557600486
           0.0343278724        0.1099752484       -0.0445385028
           0.2095789316       -0.0943518920       -0.1284284389
           0.0785644010       -0.0191322151       -0.1380758520
           0.0486007561       -0.0089450797       -0.1172283518
           0.3141611258       -0.1133809158       -0.2756561246
           0.0107212727        0.0188895395       -0.0870577327
           0.2310508870        0.4010413354        0.1163639411
          -0.1903872355       -0.3272819120        0.1181471149
          -0.0077955359       -0.0286443292        0.1858387376
vibration 21
          -0.0007415372        0.0098773482        0.0212934264
           0.1624739755       -0.1338575749        0.0144419228
          -0.1011762963       -0.0885950912       -0.0419027868
          -0.2204223122       -0.2496376191        0.3202253309
          -0.1448389148       -0.0012949655        0.0157102348
          -0.0095190207        0.0025742328       -0.0134480480
           0.0029690124       -0.0005776766       -0.0276815423
          -0.0399598094        0.1052591295        0.0085832377
          -0.0090455424       -0.3118073578        0.0104661923
           0.2375496027        0.4333517166       -0.0667901100
           0.1428742383       -0.0059220259       -0.0549482541
          -0.0169965144        0.0075104817        0.0030764012
           0.0213448844       -0.0114065405        0.0018549333
           0.0139935117       -0.0057437820        0.0053769348
          -0.0358663245        0.0169590790        0.0345025065
           0.1132609850        0.1001607166       -0.0002664238
           0.0091640787        0.3797927150       -0.0209986375
           0.0192968310        0.3554424901        0.0450632894
          -0.0920967532       -0.0894938751       -0.0144570984
vibration 22
          -0.0340580733        0.0240010240       -0.0304920754
          -0.0162904622        0.0180644480        0.0075537005
          -0.0292076568       -0.0113800201       -0.1245220042
           0.1935769995        0.0445513459        0.5122811316
           0.0268720951        0.0020112942        0.0128772577
           0.0143391317       -0.0136358328       -0.0076452611
          -0.0481260523        0.0194669365        0.0622571288
           0.0145707868       -0.0100091324       -0.0106152714
           0.0219518734        0.0873087236        0.0025520181
          -0.0400578692       -0.0696468024        0.0219177997
          -0.0394248015       -0.0360513689        0.0215734019
           0.0361958743       -0.0183373528       -0.0517834060
           0.1151350803       -0.0547323927       -0.0513675906
           0.0897018968       -0.0242145217       -0.0195448021
          -0.0079556379        0.0157988049        0.0284052310
           0.0201988188       -0.0156644862        0.1301428879
          -0.2913673039       -0.3697402487       -0.1322452109
           0.2470798189        0.4579270671       -0.1196352896
          -0.0540407012       -0.0461570390       -0.2673196585
vibration 23
           0.0065235869        0.0054435354        0.0024578911
           0.0099403154       -0.0026391781        0.0003785329
          -0.0077106089        0.0167961846        0.0064659627
          -0.0423091678       -0.0079517237        0.0044299970
          -0.0030513836        0.0131900806       -0.0014676504
          -0.0069539249       -0.0024658831       -0.0008122789
           0.0395429323        0.0578409118       -0.0021678259