
    -----------------------------------------------------------------------
          Psi4: An Open-Source Ab Initio Electronic Structure Package
                               Psi4 1.2.1 release

                         Git: Rev {HEAD} 406f4de 


    R. M. Parrish, L. A. Burns, D. G. A. Smith, A. C. Simmonett,
    A. E. DePrince III, E. G. Hohenstein, U. Bozkaya, A. Yu. Sokolov,
    R. Di Remigio, R. M. Richard, J. F. Gonthier, A. M. James,
    H. R. McAlexander, A. Kumar, M. Saitow, X. Wang, B. P. Pritchard,
    P. Verma, H. F. Schaefer III, K. Patkowski, R. A. King, E. F. Valeev,
    F. A. Evangelista, J. M. Turney, T. D. Crawford, and C. D. Sherrill,
    J. Chem. Theory Comput. 13(7) pp 3185--3197 (2017).
    (doi: 10.1021/acs.jctc.7b00174)


                         Additional Contributions by
    P. Kraus, H. Kruse, M. H. Lechner, M. C. Schieber, and R. A. Shaw

    -----------------------------------------------------------------------


    Psi4 started on: Tuesday, 15 January 2019 09:20AM

    Process ID: 31676
    Host:       localhost.localdomain
    PSIDATADIR: /root/psi4conda/share/psi4
    Memory:     500.0 MiB
    Threads:    1
    
  ==> Input File <==

--------------------------------------------------------------------------
molecule{
0 1
    C            0.446994189693    -0.301416585888     0.868835520532
    O            0.481159765750    -0.152990009249    -0.811505940796
    C           -1.624935032683     0.459307243726    -0.425158186291
    H           -2.299719283682     1.302565486172    -0.277015439688
    N           -0.503919106926     0.757595772629    -1.059964782334
    O           -0.617665798857     0.222440005482     1.300746385918
    N            1.449617743233    -0.906307516934     1.351698897941
    C           -0.005531387103     2.130881666623    -1.119508271191
    H            0.730525530364     2.180695122776    -1.921323561544
    H           -0.839712899481     2.801079679522    -1.335368523612
    H            0.460397718036     2.382967878521    -0.161367851959
    C            2.528484366012    -1.345613501225     0.469689828932
    H            2.186156650123    -2.100032731256    -0.248087817230
    H            2.963674625835    -0.511922547079    -0.092785513880
    H            3.305937044249    -1.790178599965     1.093798686939
    C           -2.214545342872    -0.907969204230    -0.429676951853
    H           -2.780557539155    -1.059440647323     0.491591591761
    H           -2.903481863599    -0.987997809925    -1.280727690315
    H           -1.443255348441    -1.672701370835    -0.516194052189

}

set{
   basis 6-31+G(d)
   freeze_core True
   normal_modes_write True
}

frequencies('mp2')
--------------------------------------------------------------------------
gradient() will perform analytic gradient computation.

*** tstart() called on localhost.localdomain
*** at Tue Jan 15 09:20:37 2019

    SCF Algorithm Type (re)set to DF.

*** tstart() called on localhost.localdomain
*** at Tue Jan 15 09:20:37 2019

   => Loading Basis Set <=

    Name: 6-31+G(D)
    Role: ORBITAL
    Keyword: BASIS
    atoms 1, 3, 8, 12, 16       entry C          line   119 file /root/psi4conda/share/psi4/basis/6-31pg_d_.gbs 
    atoms 2, 6                  entry O          line   157 file /root/psi4conda/share/psi4/basis/6-31pg_d_.gbs 
    atoms 4, 9-11, 13-15, 17-19 entry H          line    46 file /root/psi4conda/share/psi4/basis/6-31pg_d_.gbs 
    atoms 5, 7                  entry N          line   138 file /root/psi4conda/share/psi4/basis/6-31pg_d_.gbs 


         ---------------------------------------------------------
                                   SCF
            by Justin Turney, Rob Parrish, Andy Simmonett
                             and Daniel Smith
                              RHF Reference
                        1 Threads,    500 MiB Core
         ---------------------------------------------------------

  ==> Geometry <==

    Molecular point group: c1
    Full point group: C1

    Geometry (in Angstrom), charge = 0, multiplicity = 1:

       Center              X                  Y                   Z               Mass       
    ------------   -----------------  -----------------  -----------------  -----------------
         C            0.446994189693    -0.301416585888     0.868835520532    12.000000000000
         O            0.481159765750    -0.152990009249    -0.811505940796    15.994914619560
         C           -1.624935032683     0.459307243726    -0.425158186291    12.000000000000
         H           -2.299719283682     1.302565486172    -0.277015439688     1.007825032070
         N           -0.503919106926     0.757595772629    -1.059964782334    14.003074004780
         O           -0.617665798857     0.222440005482     1.300746385918    15.994914619560
         N            1.449617743233    -0.906307516934     1.351698897941    14.003074004780
         C           -0.005531387103     2.130881666623    -1.119508271191    12.000000000000
         H            0.730525530364     2.180695122776    -1.921323561544     1.007825032070
         H           -0.839712899481     2.801079679522    -1.335368523612     1.007825032070
         H            0.460397718036     2.382967878521    -0.161367851959     1.007825032070
         C            2.528484366012    -1.345613501225     0.469689828932    12.000000000000
         H            2.186156650123    -2.100032731256    -0.248087817230     1.007825032070
         H            2.963674625835    -0.511922547079    -0.092785513880     1.007825032070
         H            3.305937044249    -1.790178599965     1.093798686939     1.007825032070
         C           -2.214545342872    -0.907969204230    -0.429676951853    12.000000000000
         H           -2.780557539155    -1.059440647323     0.491591591761     1.007825032070
         H           -2.903481863599    -0.987997809925    -1.280727690315     1.007825032070
         H           -1.443255348441    -1.672701370835    -0.516194052189     1.007825032070

  Running in c1 symmetry.

  Rotational constants: A =      0.08329  B =      0.04379  C =      0.03646 [cm^-1]
  Rotational constants: A =   2497.04235  B =   1312.88986  C =   1093.00883 [MHz]
  Nuclear repulsion =  486.871190247330958

  Charge       = 0
  Multiplicity = 1
  Electrons    = 70
  Nalpha       = 35
  Nbeta        = 35

  ==> Algorithm <==

  SCF Algorithm Type is DF.
  DIIS enabled.
  MOM disabled.
  Fractional occupation disabled.
  Guess Type is SAD.
  Energy threshold   = 1.00e-10
  Density threshold  = 1.00e-10
  Integral threshold = 0.00e+00

  ==> Primary Basis <==

  Basis Set: 6-31+G(D)
    Blend: 6-31+G(D)
    Number of shells: 92
    Number of basis function: 191
    Number of Cartesian functions: 191
    Spherical Harmonics?: false
    Max angular momentum: 2

   => Loading Basis Set <=

    Name: (6-31+G(D) AUX)
    Role: JKFIT
    Keyword: DF_BASIS_SCF
    atoms 1, 3, 8, 12, 16       entry C          line   194 file /root/psi4conda/share/psi4/basis/heavy-aug-cc-pvdz-jkfit.gbs 
    atoms 2, 6                  entry O          line   310 file /root/psi4conda/share/psi4/basis/heavy-aug-cc-pvdz-jkfit.gbs 
    atoms 4, 9-11, 13-15, 17-19 entry H          line   116 file /root/psi4conda/share/psi4/basis/heavy-aug-cc-pvdz-jkfit.gbs 
    atoms 5, 7                  entry N          line   252 file /root/psi4conda/share/psi4/basis/heavy-aug-cc-pvdz-jkfit.gbs 

  ==> Pre-Iterations <==

   -------------------------------------------------------
    Irrep   Nso     Nmo     Nalpha   Nbeta   Ndocc  Nsocc
   -------------------------------------------------------
     A        191     191       0       0       0       0
   -------------------------------------------------------
    Total     191     191      35      35      35       0
   -------------------------------------------------------

  ==> Integral Setup <==

  ==> DiskDFJK: Density-Fitted J/K Matrices <==

    J tasked:                  Yes
    K tasked:                  Yes
    wK tasked:                  No
    OpenMP threads:              1
    Integrals threads:           1
    Memory (MB):               375
    Algorithm:                Core
    Integral Cache:           NONE
    Schwarz Cutoff:          1E-12
    Fitting Condition:       1E-12

   => Auxiliary Basis Set <=

  Basis Set: (6-31+G(D) AUX)
    Blend: HEAVY-AUG-CC-PVDZ-JKFIT
    Number of shells: 342
    Number of basis function: 1159
    Number of Cartesian functions: 1159
    Spherical Harmonics?: false
    Max angular momentum: 3

  Minimum eigenvalue in the overlap matrix is 4.8270469930E-05.
  Using Symmetric Orthogonalization.

  SCF Guess: Superposition of Atomic Densities via on-the-fly atomic UHF.

  ==> Iterations <==

                           Total Energy        Delta E     RMS |[F,P]|

   @DF-RHF iter   0:  -456.96004742359662   -4.56960e+02   2.84126e-02 
   @DF-RHF iter   1:  -453.35576768167738    3.60428e+00   3.66567e-03 
   @DF-RHF iter   2:  -453.56893502260846   -2.13167e-01   2.13785e-03 DIIS
   @DF-RHF iter   3:  -453.63889490807082   -6.99599e-02   4.81559e-04 DIIS
   @DF-RHF iter   4:  -453.64682069315586   -7.92579e-03   1.46861e-04 DIIS
   @DF-RHF iter   5:  -453.64771743293045   -8.96740e-04   6.28444e-05 DIIS
   @DF-RHF iter   6:  -453.64792983878704   -2.12406e-04   2.65952e-05 DIIS
   @DF-RHF iter   7:  -453.64796997123204   -4.01324e-05   1.15415e-05 DIIS
   @DF-RHF iter   8:  -453.64797761211003   -7.64088e-06   4.33931e-06 DIIS
   @DF-RHF iter   9:  -453.64797896034310   -1.34823e-06   1.83053e-06 DIIS
   @DF-RHF iter  10:  -453.64797913351686   -1.73174e-07   6.90297e-07 DIIS
   @DF-RHF iter  11:  -453.64797916167203   -2.81552e-08   2.48182e-07 DIIS
   @DF-RHF iter  12:  -453.64797916480393   -3.13190e-09   1.01110e-07 DIIS
   @DF-RHF iter  13:  -453.64797916529102   -4.87091e-10   3.93757e-08 DIIS
   @DF-RHF iter  14:  -453.64797916536264   -7.16227e-11   1.73374e-08 DIIS
   @DF-RHF iter  15:  -453.64797916537185   -9.20863e-12   4.90120e-09 DIIS
   @DF-RHF iter  16:  -453.64797916537191   -5.68434e-14   1.63046e-09 DIIS
   @DF-RHF iter  17:  -453.64797916537475   -2.84217e-12   6.43065e-10 DIIS
   @DF-RHF iter  18:  -453.64797916537219    2.55795e-12   2.42587e-10 DIIS
   @DF-RHF iter  19:  -453.64797916537469   -2.50111e-12   1.18037e-10 DIIS
   @DF-RHF iter  20:  -453.64797916537378    9.09495e-13   4.55394e-11 DIIS

  ==> Post-Iterations <==

    Orbital Energies [Eh]
    ---------------------

    Doubly Occupied:                                                      

       1A    -20.614834     2A    -20.562525     3A    -15.683936  
       4A    -15.529292     5A    -11.385515     6A    -11.379302  
       7A    -11.290835     8A    -11.263048     9A    -11.232182  
      10A     -1.470559    11A     -1.365438    12A     -1.219535  
      13A     -1.170841    14A     -1.070809    15A     -0.968269  
      16A     -0.920232    17A     -0.835516    18A     -0.756272  
      19A     -0.720453    20A     -0.702954    21A     -0.675996  
      22A     -0.633692    23A     -0.624696    24A     -0.610556  
      25A     -0.589393    26A     -0.582024    27A     -0.579668  
      28A     -0.564649    29A     -0.540596    30A     -0.534490  
      31A     -0.500942    32A     -0.466297    33A     -0.441382  
      34A     -0.370084    35A     -0.351469  

    Virtual:                                                              

      36A      0.053075    37A      0.071746    38A      0.080113  
      39A      0.084317    40A      0.100468    41A      0.102575  
      42A      0.111516    43A      0.116080    44A      0.119283  
      45A      0.126233    46A      0.136900    47A      0.146704  
      48A      0.159950    49A      0.165533    50A      0.170892  
      51A      0.180002    52A      0.190618    53A      0.209797  
      54A      0.213895    55A      0.221232    56A      0.222509  
      57A      0.239796    58A      0.243270    59A      0.280571  
      60A      0.304859    61A      0.308796    62A      0.316294  
      63A      0.319965    64A      0.337788    65A      0.340874  
      66A      0.348407    67A      0.352269    68A      0.367527  
      69A      0.372986    70A      0.395138    71A      0.403435  
      72A      0.404717    73A      0.406343    74A      0.417429  
      75A      0.422705    76A      0.427281    77A      0.438765  
      78A      0.451653    79A      0.456073    80A      0.462151  
      81A      0.476731    82A      0.491477    83A      0.505710  
      84A      0.520420    85A      0.528479    86A      0.534886  
      87A      0.567509    88A      0.600874    89A      0.606266  
      90A      0.672622    91A      0.771819    92A      0.835178  
      93A      0.867350    94A      0.909252    95A      0.919005  
      96A      0.937576    97A      0.949064    98A      0.956729  
      99A      0.964971   100A      0.981354   101A      0.998704  
     102A      1.021788   103A      1.034447   104A      1.104016  
     105A      1.117756   106A      1.154075   107A      1.168480  
     108A      1.190570   109A      1.200900   110A      1.209367  
     111A      1.224425   112A      1.261079   113A      1.264221  
     114A      1.280185   115A      1.287914   116A      1.312926  
     117A      1.325220   118A      1.355435   119A      1.373259  
     120A      1.384465   121A      1.395116   122A      1.414776  
     123A      1.430806   124A      1.449886   125A      1.479164  
     126A      1.525339   127A      1.531293   128A      1.590263  
     129A      1.604347   130A      1.657552   131A      1.687945  
     132A      1.696617   133A      1.720935   134A      1.741659  
     135A      1.756777   136A      1.784159   137A      1.814170  
     138A      1.816834   139A      1.877450   140A      1.880818  
     141A      1.926081   142A      1.960430   143A      2.005563  
     144A      2.025696   145A      2.070632   146A      2.120897  
     147A      2.159436   148A      2.200392   149A      2.209819  
     150A      2.255345   151A      2.294883   152A      2.311027  
     153A      2.335304   154A      2.382624   155A      2.437514  
     156A      2.457331   157A      2.458771   158A      2.480058  
     159A      2.520759   160A      2.535905   161A      2.564190  
     162A      2.577742   163A      2.589972   164A      2.605602  
     165A      2.659514   166A      2.688259   167A      2.725908  
     168A      2.773729   169A      2.787075   170A      2.815455  
     171A      2.955206   172A      2.976986   173A      3.026212  
     174A      3.066734   175A      3.106680   176A      3.133012  
     177A      3.187935   178A      3.278652   179A      3.355528  
     180A      3.397088   181A      3.460136   182A      3.636610  
     183A      4.575269   184A      4.668913   185A      4.692419  
     186A      4.786449   187A      4.792132   188A      4.854074  
     189A      4.919670   190A      4.951556   191A      5.125099  

    Final Occupation by Irrep:
              A 
    DOCC [    35 ]

  Energy converged.

  @DF-RHF Final Energy:  -453.64797916537378

   => Energetics <=

    Nuclear Repulsion Energy =            486.8711902473309578
    One-Electron Energy =               -1584.6217774523527169
    Two-Electron Energy =                 644.1026080396479756
    Total Energy =                       -453.6479791653737266



Properties will be evaluated at   0.000000,   0.000000,   0.000000 [a0]

Properties computed using the SCF density matrix

  Nuclear Dipole Moment: [e a0]
     X:    -0.5847      Y:     0.5117      Z:    -3.9804

  Electronic Dipole Moment: [e a0]
     X:    -0.9166      Y:     0.5076      Z:     2.2570

  Dipole Moment: [e a0]
     X:    -1.5013      Y:     1.0193      Z:    -1.7234     Total:     2.5026

  Dipole Moment: [D]
     X:    -3.8159      Y:     2.5907      Z:    -4.3805     Total:     6.3610


*** tstop() called on localhost.localdomain at Tue Jan 15 09:20:53 2019
Module time:
	user time   =      15.79 seconds =       0.26 minutes
	system time =       0.46 seconds =       0.01 minutes
	total time  =         16 seconds =       0.27 minutes
Total time:
	user time   =      15.79 seconds =       0.26 minutes
	system time =       0.46 seconds =       0.01 minutes
	total time  =         16 seconds =       0.27 minutes

  //>>>>>>>>>>>>>>>>>>>>>>>>>>>>>>>>>>>//
  //               DFMP2               //
  //<<<<<<<<<<<<<<<<<<<<<<<<<<<<<<<<<<<//

   => Loading Basis Set <=

    Name: (6-31+G(D) AUX)
    Role: RIFIT
    Keyword: DF_BASIS_MP2
    atoms 1, 3, 8, 12, 16       entry C          line   116 file /root/psi4conda/share/psi4/basis/heavy-aug-cc-pvdz-ri.gbs 
    atoms 2, 6                  entry O          line   208 file /root/psi4conda/share/psi4/basis/heavy-aug-cc-pvdz-ri.gbs 
    atoms 4, 9-11, 13-15, 17-19 entry H          line    44 file /root/psi4conda/share/psi4/basis/heavy-aug-cc-pvdz-ri.gbs 
    atoms 5, 7                  entry N          line   162 file /root/psi4conda/share/psi4/basis/heavy-aug-cc-pvdz-ri.gbs 

	 --------------------------------------------------------
	                          DF-MP2                         
	      2nd-Order Density-Fitted Moller-Plesset Theory     
	              RMP2 Wavefunction,   1 Threads             
	                                                         
	        Rob Parrish, Justin Turney, Andy Simmonett,      
	           Ed Hohenstein, and C. David Sherrill          
	 --------------------------------------------------------

   => Auxiliary Basis Set <=

  Basis Set: (6-31+G(D) AUX)
    Blend: HEAVY-AUG-CC-PVDZ-RI
    Number of shells: 258
    Number of basis function: 788
    Number of Cartesian functions: 924
    Spherical Harmonics?: true
    Max angular momentum: 3

	 --------------------------------------------------------
	                 NBF =   191, NAUX =   788
	 --------------------------------------------------------
	   CLASS    FOCC     OCC    AOCC    AVIR     VIR    FVIR
	   PAIRS       9      35      26     156     156       0
	 --------------------------------------------------------


         ------------------------------------------------------------
                                     CPHF                           
                                  Rob Parrish                       
         ------------------------------------------------------------

  ==> Geometry <==

    Molecular point group: c1
    Full point group: C1

    Geometry (in Angstrom), charge = 0, multiplicity = 1:

       Center              X                  Y                   Z               Mass       
    ------------   -----------------  -----------------  -----------------  -----------------
         C            0.446994189693    -0.301416585888     0.868835520532    12.000000000000
         O            0.481159765750    -0.152990009249    -0.811505940796    15.994914619560
         C           -1.624935032683     0.459307243726    -0.425158186291    12.000000000000
         H           -2.299719283682     1.302565486172    -0.277015439688     1.007825032070
         N           -0.503919106926     0.757595772629    -1.059964782334    14.003074004780
         O           -0.617665798857     0.222440005482     1.300746385918    15.994914619560
         N            1.449617743233    -0.906307516934     1.351698897941    14.003074004780
         C           -0.005531387103     2.130881666623    -1.119508271191    12.000000000000
         H            0.730525530364     2.180695122776    -1.921323561544     1.007825032070
         H           -0.839712899481     2.801079679522    -1.335368523612     1.007825032070
         H            0.460397718036     2.382967878521    -0.161367851959     1.007825032070
         C            2.528484366012    -1.345613501225     0.469689828932    12.000000000000
         H            2.186156650123    -2.100032731256    -0.248087817230     1.007825032070
         H            2.963674625835    -0.511922547079    -0.092785513880     1.007825032070
         H            3.305937044249    -1.790178599965     1.093798686939     1.007825032070
         C           -2.214545342872    -0.907969204230    -0.429676951853    12.000000000000
         H           -2.780557539155    -1.059440647323     0.491591591761     1.007825032070
         H           -2.903481863599    -0.987997809925    -1.280727690315     1.007825032070
         H           -1.443255348441    -1.672701370835    -0.516194052189     1.007825032070

  Nuclear repulsion =  486.871190247330958
  Reference energy  = -453.647979165373783

  ==> Basis Set <==

  Basis Set: 6-31+G(D)
    Blend: 6-31+G(D)
    Number of shells: 92
    Number of basis function: 191
    Number of Cartesian functions: 191
    Spherical Harmonics?: false
    Max angular momentum: 2

  ==> CGRSolver (by Rob Parrish) <==

   Number of roots    =         1
   Preconditioning    =    JACOBI
   Convergence cutoff =     1E-06
   Maximum iterations =       100

  ==> CPHFRHamiltonian (by Rob Parrish) <== 

  ==> DiskDFJK: Density-Fitted J/K Matrices <==

    J tasked:                  Yes
    K tasked:                  Yes
    wK tasked:                  No
    OpenMP threads:              1
    Integrals threads:           1
    Memory (MB):               375
    Algorithm:                Core
    Integral Cache:           NONE
    Schwarz Cutoff:          1E-12
    Fitting Condition:       1E-12

   => Auxiliary Basis Set <=

  Basis Set: (6-31+G(D) AUX)
    Blend: HEAVY-AUG-CC-PVDZ-JKFIT
    Number of shells: 342
    Number of basis function: 1159
    Number of Cartesian functions: 1159
    Spherical Harmonics?: false
    Max angular momentum: 3

  ==> CPHF Iterations <==

  => Iterations <=

             Iter  Converged  Remaining    Residual
  CGR           1          0          1   1.823E-01
  CGR           2          0          1   5.020E-02
  CGR           3          0          1   2.742E-02
  CGR           4          0          1   8.319E-03
  CGR           5          0          1   3.667E-03
  CGR           6          0          1   1.143E-03
  CGR           7          0          1   5.276E-04
  CGR           8          0          1   2.065E-04
  CGR           9          0          1   8.231E-05
  CGR          10          0          1   3.399E-05
  CGR          11          0          1   1.169E-05
  CGR          12          0          1   4.178E-06
  CGR          13          0          1   1.405E-06
  CGR          14          1          0   3.746E-07

    CGRSolver converged.

  ==> DFCorrGrad: Density-Fitted Correlated Gradients <==

    OpenMP threads:              1
    Integrals threads:           1
    Memory (MB):               375
    Schwarz Cutoff:          0E+00
    Fitting Condition:       1E-12

   => Auxiliary Basis Set <=

  Basis Set: (6-31+G(D) AUX)
    Blend: HEAVY-AUG-CC-PVDZ-JKFIT
    Number of shells: 342
    Number of basis function: 1159
    Number of Cartesian functions: 1159
    Spherical Harmonics?: false
    Max angular momentum: 3

	-----------------------------------------------------------
	 ==================> DF-MP2 Energies <==================== 
	-----------------------------------------------------------
	 Reference Energy          =    -453.6479791653737834 [Eh]
	 Singles Energy            =      -0.0000000000000000 [Eh]
	 Same-Spin Energy          =      -0.3634459247544731 [Eh]
	 Opposite-Spin Energy      =      -1.0067455454487215 [Eh]
	 Correlation Energy        =      -1.3701914702031945 [Eh]
	 Total Energy              =    -455.0181706355769506 [Eh]
	-----------------------------------------------------------
	 ================> DF-SCS-MP2 Energies <================== 
	-----------------------------------------------------------
	 SCS Same-Spin Scale       =       0.3333333333333333 [-]
	 SCS Opposite-Spin Scale   =       1.2000000000000000 [-]
	 SCS Same-Spin Energy      =      -0.1211486415848244 [Eh]
	 SCS Opposite-Spin Energy  =      -1.2080946545384659 [Eh]
	 SCS Correlation Energy    =      -1.3292432961232903 [Eh]
	 SCS Total Energy          =    -454.9772224614970924 [Eh]
	-----------------------------------------------------------


  -Total Gradient:
     Atom            X                  Y                   Z
    ------   -----------------  -----------------  -----------------
       1        0.000020793034    -0.000002387710    -0.000413449523
       2        0.000050896877    -0.000065007205     0.000259003720
       3        0.000003192351     0.000002261060    -0.000006044960
       4       -0.000012447727     0.000002401764    -0.000021867512
       5       -0.000075857550     0.000077301204    -0.000024417158
       6       -0.000052336527     0.000015932331     0.000160973108
       7        0.000080046812    -0.000050692630     0.000117854117
       8        0.000020381288     0.000029039010    -0.000031716868
       9       -0.000007799167    -0.000006955053    -0.000011631088
      10       -0.000009153206    -0.000001569783     0.000006343011
      11        0.000007255178    -0.000005411911     0.000000058330
      12       -0.000013677725     0.000012946907    -0.000016700191
      13        0.000016890249     0.000009867192     0.000010166529
      14       -0.000002701873    -0.000021293073     0.000006834603
      15       -0.000012565020     0.000010754251    -0.000013513002
      16       -0.000011064022    -0.000000107912    -0.000023960371
      17       -0.000003294132     0.000001995562     0.000003202784
      18        0.000001130558    -0.000001043348    -0.000006744400
      19        0.000000310603    -0.000008030653     0.000005608873


*** tstop() called on localhost.localdomain at Tue Jan 15 09:21:37 2019
Module time:
	user time   =      57.53 seconds =       0.96 minutes
	system time =       1.98 seconds =       0.03 minutes
	total time  =         60 seconds =       1.00 minutes
Total time:
	user time   =      57.53 seconds =       0.96 minutes
	system time =       1.98 seconds =       0.03 minutes
	total time  =         60 seconds =       1.00 minutes

  Based on options and gradient (rms=7.44E-05), recommend projecting translations and projecting rotations.
hessian() will perform frequency computation by finite difference of analytic gradients.

-------------------------------------------------------------

  Using finite-differences of gradients to determine vibrational frequencies and 
  normal modes.  Resulting frequencies are only valid at stationary points.
	Generating geometries for use with 3-point formula.
	Displacement size will be 5.00e-03.
	Number of atoms is 19.
	Number of irreps is 1.
	Number of SALCS is 51.
	Translations projected? 1. Rotations projected? 1.
	Index of salcs per irrep:
	 1 :  0  1  2  3  4  5  6  7  8  9  10  11  12  13  14  15  16  17  18  19  20  21  22  23  24  25  26  27  28  29  30  31  32  33  34  35  36  37  38  39  40  41  42  43  44  45  46  47  48  49  50 
	Number of SALC's per irrep:
		 Irrep 1: 51
	Number of geometries (including reference) is 103.
	Number of displacements per irrep:
	  Irrep 1: 102

  //>>>>>>>>>>>>>>>>>>>>>>>>>>>>>>>>>>>//
  //   Loading displacement 1 of 103   //
  //<<<<<<<<<<<<<<<<<<<<<<<<<<<<<<<<<<<//
gradient() will perform analytic gradient computation.

*** tstart() called on localhost.localdomain
*** at Tue Jan 15 09:21:37 2019

    SCF Algorithm Type (re)set to DF.

*** tstart() called on localhost.localdomain
*** at Tue Jan 15 09:21:37 2019

   => Loading Basis Set <=

    Name: 6-31+G(D)
    Role: ORBITAL
    Keyword: BASIS
    atoms 1, 3, 8, 12, 16       entry C          line   119 file /root/psi4conda/share/psi4/basis/6-31pg_d_.gbs 
    atoms 2, 6                  entry O          line   157 file /root/psi4conda/share/psi4/basis/6-31pg_d_.gbs 
    atoms 4, 9-11, 13-15, 17-19 entry H          line    46 file /root/psi4conda/share/psi4/basis/6-31pg_d_.gbs 
    atoms 5, 7                  entry N          line   138 file /root/psi4conda/share/psi4/basis/6-31pg_d_.gbs 


         ---------------------------------------------------------
                                   SCF
            by Justin Turney, Rob Parrish, Andy Simmonett
                             and Daniel Smith
                              RHF Reference
                        1 Threads,    500 MiB Core
         ---------------------------------------------------------

  ==> Geometry <==

    Molecular point group: c1
    Full point group: C1

    Geometry (in Angstrom), charge = 0, multiplicity = 1:

       Center              X                  Y                   Z               Mass       
    ------------   -----------------  -----------------  -----------------  -----------------
         C            0.446276583036    -0.301411352517     0.868826859911    12.000000000000
         O            0.481216980549    -0.152992346287    -0.811516045778    15.994914619560
         C           -1.624870881663     0.459300691049    -0.425123798809    12.000000000000
         H           -2.299654200284     1.302557693968    -0.276969749628     1.007825032070
         N           -0.503870055432     0.757589505544    -1.059956925170    14.003074004780
         O           -0.617562225162     0.222444187424     1.300759238856    15.994914619560
         N            1.449725665083    -0.906297234125     1.351670486372    14.003074004780
         C           -0.005487570818     2.130876542608    -1.119517870207    12.000000000000
         H            0.730551202760     2.180688429515    -1.921349913925     1.007825032070
         H           -0.839675832207     2.801071202557    -1.335362451563     1.007825032070
         H            0.460462331048     2.382968449125    -0.161389062358     1.007825032070
         C            2.528573731907    -1.345604180456     0.469639199030    12.000000000000
         H            2.186232041920    -2.100027657466    -0.248127318723     1.007825032070
         H            2.963748996356    -0.511914557515    -0.092849718872     1.007825032070
         H            3.306041684716    -1.790164224445     1.093732630095     1.007825032070
         C           -2.214477412038    -0.907977451246    -0.429623087468    12.000000000000
         H           -2.780468493874    -1.059446297324     0.491658855505     1.007825032070
         H           -2.903432813516    -0.988011895958    -1.280657992648     1.007825032070
         H           -1.443187189268    -1.672707823177    -0.516154015459     1.007825032070

  Running in c1 symmetry.

  Rotational constants: A =      0.08329  B =      0.04379  C =      0.03646 [cm^-1]
  Rotational constants: A =   2496.98641  B =   1312.93343  C =   1093.03055 [MHz]
  Nuclear repulsion =  486.875537804067221

  Charge       = 0
  Multiplicity = 1
  Electrons    = 70
  Nalpha       = 35
  Nbeta        = 35

  ==> Algorithm <==

  SCF Algorithm Type is DF.
  DIIS enabled.
  MOM disabled.
  Fractional occupation disabled.
  Guess Type is SAD.
  Energy threshold   = 1.00e-10
  Density threshold  = 1.00e-10
  Integral threshold = 0.00e+00

  ==> Primary Basis <==

  Basis Set: 6-31+G(D)
    Blend: 6-31+G(D)
    Number of shells: 92
    Number of basis function: 191
    Number of Cartesian functions: 191
    Spherical Harmonics?: false
    Max angular momentum: 2

   => Loading Basis Set <=

    Name: (6-31+G(D) AUX)
    Role: JKFIT
    Keyword: DF_BASIS_SCF
    atoms 1, 3, 8, 12, 16       entry C          line   194 file /root/psi4conda/share/psi4/basis/heavy-aug-cc-pvdz-jkfit.gbs 
    atoms 2, 6                  entry O          line   310 file /root/psi4conda/share/psi4/basis/heavy-aug-cc-pvdz-jkfit.gbs 
    atoms 4, 9-11, 13-15, 17-19 entry H          line   116 file /root/psi4conda/share/psi4/basis/heavy-aug-cc-pvdz-jkfit.gbs 
    atoms 5, 7                  entry N          line   252 file /root/psi4conda/share/psi4/basis/heavy-aug-cc-pvdz-jkfit.gbs 

  ==> Pre-Iterations <==

   -------------------------------------------------------
    Irrep   Nso     Nmo     Nalpha   Nbeta   Ndocc  Nsocc
   -------------------------------------------------------
     A        191     191       0       0       0       0
   -------------------------------------------------------
    Total     191     191      35      35      35       0
   -------------------------------------------------------

  ==> Integral Setup <==

  ==> DiskDFJK: Density-Fitted J/K Matrices <==

    J tasked:                  Yes
    K tasked:                  Yes
    wK tasked:                  No
    OpenMP threads:              1
    Integrals threads:           1
    Memory (MB):               375
    Algorithm:                Core
    Integral Cache:           NONE
    Schwarz Cutoff:          1E-12
    Fitting Condition:       1E-12

   => Auxiliary Basis Set <=

  Basis Set: (6-31+G(D) AUX)
    Blend: HEAVY-AUG-CC-PVDZ-JKFIT
    Number of shells: 342
    Number of basis function: 1159
    Number of Cartesian functions: 1159
    Spherical Harmonics?: false
    Max angular momentum: 3

  Minimum eigenvalue in the overlap matrix is 4.8269001517E-05.
  Using Symmetric Orthogonalization.

  SCF Guess: Superposition of Atomic Densities via on-the-fly atomic UHF.

  ==> Iterations <==

                           Total Energy        Delta E     RMS |[F,P]|

   @DF-RHF iter   0:  -456.77954809117188   -4.56780e+02   2.81296e-02 
   @DF-RHF iter   1:  -453.39337511567049    3.38617e+00   3.00293e-03 
   @DF-RHF iter   2:  -453.58935495783084   -1.95980e-01   1.63133e-03 DIIS
   @DF-RHF iter   3:  -453.63412916334892   -4.47742e-02   6.03788e-04 DIIS
   @DF-RHF iter   4:  -453.64610129835506   -1.19721e-02   1.87683e-04 DIIS
   @DF-RHF iter   5:  -453.64753096572633   -1.42967e-03   9.68720e-05 DIIS
   @DF-RHF iter   6:  -453.64789526204612   -3.64296e-04   3.18116e-05 DIIS
   @DF-RHF iter   7:  -453.64795559004938   -6.03280e-05   1.10766e-05 DIIS
   @DF-RHF iter   8:  -453.64796061593000   -5.02588e-06   3.73988e-06 DIIS
   @DF-RHF iter   9:  -453.64796128660896   -6.70679e-07   1.57225e-06 DIIS
   @DF-RHF iter  10:  -453.64796138717395   -1.00565e-07   5.77631e-07 DIIS
   @DF-RHF iter  11:  -453.64796140670728   -1.95333e-08   2.09064e-07 DIIS
   @DF-RHF iter  12:  -453.64796140914359   -2.43631e-09   9.00844e-08 DIIS
   @DF-RHF iter  13:  -453.64796140955832   -4.14730e-10   3.49293e-08 DIIS
   @DF-RHF iter  14:  -453.64796140964859   -9.02673e-11   1.48312e-08 DIIS
   @DF-RHF iter  15:  -453.64796140965944   -1.08571e-11   7.35560e-09 DIIS
   @DF-RHF iter  16:  -453.64796140966132   -1.87583e-12   2.59868e-09 DIIS
   @DF-RHF iter  17:  -453.64796140966223   -9.09495e-13   1.01831e-09 DIIS
   @DF-RHF iter  18:  -453.64796140966547   -3.24007e-12   4.66246e-10 DIIS
   @DF-RHF iter  19:  -453.64796140966229    3.18323e-12   1.97904e-10 DIIS
   @DF-RHF iter  20:  -453.64796140966126    1.02318e-12   9.16045e-11 DIIS

  ==> Post-Iterations <==

    Orbital Energies [Eh]
    ---------------------

    Doubly Occupied:                                                      

       1A    -20.614861     2A    -20.562689     3A    -15.684011  
       4A    -15.529194     5A    -11.385556     6A    -11.379360  
       7A    -11.290874     8A    -11.263102     9A    -11.232080  
      10A     -1.470666    11A     -1.365888    12A     -1.219427  
      13A     -1.170639    14A     -1.070870    15A     -0.968319  
      16A     -0.920064    17A     -0.835559    18A     -0.756351  
      19A     -0.720498    20A     -0.703069    21A     -0.676089  
      22A     -0.633742    23A     -0.624701    24A     -0.610572  
      25A     -0.589415    26A     -0.582059    27A     -0.579667  
      28A     -0.564705    29A     -0.540556    30A     -0.534581  
      31A     -0.501020    32A     -0.466376    33A     -0.441411  
      34A     -0.370013    35A     -0.351252  

    Virtual:                                                              

      36A      0.053046    37A      0.071728    38A      0.080093  
      39A      0.084290    40A      0.100492    41A      0.102545  
      42A      0.111511    43A      0.116079    44A      0.119282  
      45A      0.126238    46A      0.136907    47A      0.146693  
      48A      0.159918    49A      0.165530    50A      0.170885  
      51A      0.179986    52A      0.190613    53A      0.209795  
      54A      0.213872    55A      0.221194    56A      0.222530  
      57A      0.239786    58A      0.243285    59A      0.280542  
      60A      0.304885    61A      0.308822    62A      0.316278  
      63A      0.319929    64A      0.337776    65A      0.340863  
      66A      0.348377    67A      0.352239    68A      0.367525  
      69A      0.373009    70A      0.395126    71A      0.403429  
      72A      0.404686    73A      0.406338    74A      0.417430  
      75A      0.422697    76A      0.427234    77A      0.438774  
      78A      0.451613    79A      0.456069    80A      0.462179  
      81A      0.476797    82A      0.491473    83A      0.505676  
      84A      0.520402    85A      0.528451    86A      0.534858  
      87A      0.567509    88A      0.600888    89A      0.606255  
      90A      0.672697    91A      0.771755    92A      0.835129  
      93A      0.867302    94A      0.909194    95A      0.918954  
      96A      0.937547    97A      0.949108    98A      0.956785  
      99A      0.964986   100A      0.981322   101A      0.998667  
     102A      1.021918   103A      1.034414   104A      1.103983  
     105A      1.117789   106A      1.154109   107A      1.168458  
     108A      1.190551   109A      1.200853   110A      1.209324  
     111A      1.224506   112A      1.261015   113A      1.264166  
     114A      1.280137   115A      1.287899   116A      1.312997  
     117A      1.325300   118A      1.355438   119A      1.373280  
     120A      1.384427   121A      1.395090   122A      1.414871  
     123A      1.430892   124A      1.449882   125A      1.479060  
     126A      1.525207   127A      1.531360   128A      1.590192  
     129A      1.604365   130A      1.657535   131A      1.687754  
     132A      1.696450   133A      1.720967   134A      1.741695  
     135A      1.756699   136A      1.784194   137A      1.814149  
     138A      1.816791   139A      1.877434   140A      1.880656  
     141A      1.926018   142A      1.960383   143A      2.005636  
     144A      2.025585   145A      2.070534   146A      2.120806  
     147A      2.159402   148A      2.200345   149A      2.209771  
     150A      2.255243   151A      2.294874   152A      2.311045  
     153A      2.335271   154A      2.382568   155A      2.437556  
     156A      2.457397   157A      2.459060   158A      2.480019  
     159A      2.520687   160A      2.535897   161A      2.564147  
     162A      2.577675   163A      2.589919   164A      2.605586  
     165A      2.659477   166A      2.688286   167A      2.725831  
     168A      2.773641   169A      2.787031   170A      2.815471  
     171A      2.955345   172A      2.977087   173A      3.026315  
     174A      3.066735   175A      3.106696   176A      3.132889  
     177A      3.187855   178A      3.278506   179A      3.355514  
     180A      3.397403   181A      3.460205   182A      3.636576  
     183A      4.575239   184A      4.668784   185A      4.692400  
     186A      4.786511   187A      4.792109   188A      4.853886  
     189A      4.919613   190A      4.951575   191A      5.125587  

    Final Occupation by Irrep:
              A 
    DOCC [    35 ]

  Energy converged.

  @DF-RHF Final Energy:  -453.64796140966126

   => Energetics <=

    Nuclear Repulsion Energy =            486.8755378040672213
    One-Electron Energy =               -1584.6285300168583490
    Two-Electron Energy =                 644.1050308031298073
    Total Energy =                       -453.6479614096612067



Properties will be evaluated at   0.000000,   0.000000,   0.000000 [a0]

Properties computed using the SCF density matrix

  Nuclear Dipole Moment: [e a0]
     X:    -0.5841      Y:     0.5117      Z:    -3.9804

  Electronic Dipole Moment: [e a0]
     X:    -0.9207      Y:     0.5092      Z:     2.2564

  Dipole Moment: [e a0]
     X:    -1.5047      Y:     1.0209      Z:    -1.7240     Total:     2.5057

  Dipole Moment: [D]
     X:    -3.8246      Y:     2.5948      Z:    -4.3820     Total:     6.3689


*** tstop() called on localhost.localdomain at Tue Jan 15 09:21:51 2019
Module time:
	user time   =      14.08 seconds =       0.23 minutes
	system time =       0.40 seconds =       0.01 minutes
	total time  =         14 seconds =       0.23 minutes
Total time:
	user time   =      71.62 seconds =       1.19 minutes
	system time =       2.38 seconds =       0.04 minutes
	total time  =         74 seconds =       1.23 minutes

  //>>>>>>>>>>>>>>>>>>>>>>>>>>>>>>>>>>>//
  //               DFMP2               //
  //<<<<<<<<<<<<<<<<<<<<<<<<<<<<<<<<<<<//

   => Loading Basis Set <=

    Name: (6-31+G(D) AUX)
    Role: RIFIT
    Keyword: DF_BASIS_MP2
    atoms 1, 3, 8, 12, 16       entry C          line   116 file /root/psi4conda/share/psi4/basis/heavy-aug-cc-pvdz-ri.gbs 
    atoms 2, 6                  entry O          line   208 file /root/psi4conda/share/psi4/basis/heavy-aug-cc-pvdz-ri.gbs 
    atoms 4, 9-11, 13-15, 17-19 entry H          line    44 file /root/psi4conda/share/psi4/basis/heavy-aug-cc-pvdz-ri.gbs 
    atoms 5, 7                  entry N          line   162 file /root/psi4conda/share/psi4/basis/heavy-aug-cc-pvdz-ri.gbs 

	 --------------------------------------------------------
	                          DF-MP2                         
	      2nd-Order Density-Fitted Moller-Plesset Theory     
	              RMP2 Wavefunction,   1 Threads             
	                                                         
	        Rob Parrish, Justin Turney, Andy Simmonett,      
	           Ed Hohenstein, and C. David Sherrill          
	 --------------------------------------------------------

   => Auxiliary Basis Set <=

  Basis Set: (6-31+G(D) AUX)
    Blend: HEAVY-AUG-CC-PVDZ-RI
    Number of shells: 258
    Number of basis function: 788
    Number of Cartesian functions: 924
    Spherical Harmonics?: true
    Max angular momentum: 3

	 --------------------------------------------------------
	                 NBF =   191, NAUX =   788
	 --------------------------------------------------------
	   CLASS    FOCC     OCC    AOCC    AVIR     VIR    FVIR
	   PAIRS       9      35      26     156     156       0
	 --------------------------------------------------------


         ------------------------------------------------------------
                                     CPHF                           
                                  Rob Parrish                       
         ------------------------------------------------------------

  ==> Geometry <==

    Molecular point group: c1
    Full point group: C1

    Geometry (in Angstrom), charge = 0, multiplicity = 1:

       Center              X                  Y                   Z               Mass       
    ------------   -----------------  -----------------  -----------------  -----------------
         C            0.446276583036    -0.301411352517     0.868826859911    12.000000000000
         O            0.481216980549    -0.152992346287    -0.811516045778    15.994914619560
         C           -1.624870881663     0.459300691049    -0.425123798809    12.000000000000
         H           -2.299654200284     1.302557693968    -0.276969749628     1.007825032070
         N           -0.503870055432     0.757589505544    -1.059956925170    14.003074004780
         O           -0.617562225162     0.222444187424     1.300759238856    15.994914619560
         N            1.449725665083    -0.906297234125     1.351670486372    14.003074004780
         C           -0.005487570818     2.130876542608    -1.119517870207    12.000000000000
         H            0.730551202760     2.180688429515    -1.921349913925     1.007825032070
         H           -0.839675832207     2.801071202557    -1.335362451563     1.007825032070
         H            0.460462331048     2.382968449125    -0.161389062358     1.007825032070
         C            2.528573731907    -1.345604180456     0.469639199030    12.000000000000
         H            2.186232041920    -2.100027657466    -0.248127318723     1.007825032070
         H            2.963748996356    -0.511914557515    -0.092849718872     1.007825032070
         H            3.306041684716    -1.790164224445     1.093732630095     1.007825032070
         C           -2.214477412038    -0.907977451246    -0.429623087468    12.000000000000
         H           -2.780468493874    -1.059446297324     0.491658855505     1.007825032070
         H           -2.903432813516    -0.988011895958    -1.280657992648     1.007825032070
         H           -1.443187189268    -1.672707823177    -0.516154015459     1.007825032070

  Nuclear repulsion =  486.875537804067278
  Reference energy  = -453.647961409661264

  ==> Basis Set <==

  Basis Set: 6-31+G(D)
    Blend: 6-31+G(D)
    Number of shells: 92
    Number of basis function: 191
    Number of Cartesian functions: 191
    Spherical Harmonics?: false
    Max angular momentum: 2

  ==> CGRSolver (by Rob Parrish) <==

   Number of roots    =         1
   Preconditioning    =    JACOBI
   Convergence cutoff =     1E-06
   Maximum iterations =       100

  ==> CPHFRHamiltonian (by Rob Parrish) <== 

  ==> DiskDFJK: Density-Fitted J/K Matrices <==

    J tasked:                  Yes
    K tasked:                  Yes
    wK tasked:                  No
    OpenMP threads:              1
    Integrals threads:           1
    Memory (MB):               375
    Algorithm:                Core
    Integral Cache:           NONE
    Schwarz Cutoff:          1E-12
    Fitting Condition:       1E-12

   => Auxiliary Basis Set <=

  Basis Set: (6-31+G(D) AUX)
    Blend: HEAVY-AUG-CC-PVDZ-JKFIT
    Number of shells: 342
    Number of basis function: 1159
    Number of Cartesian functions: 1159
    Spherical Harmonics?: false
    Max angular momentum: 3

  ==> CPHF Iterations <==

  => Iterations <=

             Iter  Converged  Remaining    Residual
  CGR           1          0          1   1.822E-01
  CGR           2          0          1   5.015E-02
  CGR           3          0          1   2.739E-02
  CGR           4          0          1   8.313E-03
  CGR           5          0          1   3.668E-03
  CGR           6          0          1   1.143E-03
  CGR           7          0          1   5.274E-04
  CGR           8          0          1   2.065E-04
  CGR           9          0          1   8.231E-05
  CGR          10          0          1   3.397E-05
  CGR          11          0          1   1.169E-05
  CGR          12          0          1   4.180E-06
  CGR          13          0          1   1.407E-06
  CGR          14          1          0   3.754E-07

    CGRSolver converged.

  ==> DFCorrGrad: Density-Fitted Correlated Gradients <==

    OpenMP threads:              1
    Integrals threads:           1
    Memory (MB):               375
    Schwarz Cutoff:          0E+00
    Fitting Condition:       1E-12

   => Auxiliary Basis Set <=

  Basis Set: (6-31+G(D) AUX)
    Blend: HEAVY-AUG-CC-PVDZ-JKFIT
    Number of shells: 342
    Number of basis function: 1159
    Number of Cartesian functions: 1159
    Spherical Harmonics?: false
    Max angular momentum: 3

	-----------------------------------------------------------
	 ==================> DF-MP2 Energies <==================== 
	-----------------------------------------------------------
	 Reference Energy          =    -453.6479614096612636 [Eh]
	 Singles Energy            =      -0.0000000000000001 [Eh]
	 Same-Spin Energy          =      -0.3634535797262946 [Eh]
	 Opposite-Spin Energy      =      -1.0067546082092815 [Eh]
	 Correlation Energy        =      -1.3702081879355761 [Eh]
	 Total Energy              =    -455.0181695975968523 [Eh]
	-----------------------------------------------------------
	 ================> DF-SCS-MP2 Energies <================== 
	-----------------------------------------------------------
	 SCS Same-Spin Scale       =       0.3333333333333333 [-]
	 SCS Opposite-Spin Scale   =       1.2000000000000000 [-]
	 SCS Same-Spin Energy      =      -0.1211511932420982 [Eh]
	 SCS Opposite-Spin Energy  =      -1.2081055298511378 [Eh]
	 SCS Correlation Energy    =      -1.3292567230932359 [Eh]
	 SCS Total Energy          =    -454.9772181327545013 [Eh]
	-----------------------------------------------------------


  -Total Gradient:
     Atom            X                  Y                   Z
    ------   -----------------  -----------------  -----------------
       1       -0.001376154796     0.000638158756    -0.000525354688
       2        0.000138752191    -0.000091761354     0.000284818007
       3        0.000062029661    -0.000037151706     0.000123180499
       4       -0.000011643130     0.000002111216    -0.000020876961
       5       -0.000052257028     0.000094716481    -0.000074856595
       6        0.000498990078    -0.000224673809    -0.000039488742
       7        0.000700230889    -0.000367100398     0.000284611022
       8        0.000021168599     0.000016066238    -0.000024704883
       9       -0.000008488031    -0.000005852160    -0.000012580150
      10       -0.000009098670    -0.000001568758     0.000006452247
      11        0.000005703351    -0.000001861767     0.000002241323
      12        0.000059864863    -0.000020150029     0.000019075141
      13        0.000006573910     0.000016449448     0.000019662850
      14       -0.000012075741    -0.000023074064     0.000014001120
      15       -0.000006184386     0.000008429825    -0.000023025120
      16       -0.000014925591     0.000000579504    -0.000033336738
      17       -0.000001285823     0.000004048389     0.000002749828
      18       -0.000001132794    -0.000002831195    -0.000008915843
      19       -0.000000067560    -0.000004534622     0.000006347691


*** tstop() called on localhost.localdomain at Tue Jan 15 09:22:30 2019
Module time:
	user time   =      51.76 seconds =       0.86 minutes
	system time =       1.92 seconds =       0.03 minutes
	total time  =         53 seconds =       0.88 minutes
Total time:
	user time   =     109.30 seconds =       1.82 minutes
	system time =       3.90 seconds =       0.07 minutes
	total time  =        113 seconds =       1.88 minutes

  //>>>>>>>>>>>>>>>>>>>>>>>>>>>>>>>>>>>//
  //   Loading displacement 2 of 103   //
  //<<<<<<<<<<<<<<<<<<<<<<<<<<<<<<<<<<<//
gradient() will perform analytic gradient computation.

*** tstart() called on localhost.localdomain
*** at Tue Jan 15 09:22:30 2019

    SCF Algorithm Type (re)set to DF.

*** tstart() called on localhost.localdomain
*** at Tue Jan 15 09:22:30 2019

   => Loading Basis Set <=

    Name: 6-31+G(D)
    Role: ORBITAL
    Keyword: BASIS
    atoms 1, 3, 8, 12, 16       entry C          line   119 file /root/psi4conda/share/psi4/basis/6-31pg_d_.gbs 
    atoms 2, 6                  entry O          line   157 file /root/psi4conda/share/psi4/basis/6-31pg_d_.gbs 
    atoms 4, 9-11, 13-15, 17-19 entry H          line    46 file /root/psi4conda/share/psi4/basis/6-31pg_d_.gbs 
    atoms 5, 7                  entry N          line   138 file /root/psi4conda/share/psi4/basis/6-31pg_d_.gbs 


         ---------------------------------------------------------
                                   SCF
            by Justin Turney, Rob Parrish, Andy Simmonett
                             and Daniel Smith
                              RHF Reference
                        1 Threads,    500 MiB Core
         ---------------------------------------------------------

  ==> Geometry <==

    Molecular point group: c1
    Full point group: C1

    Geometry (in Angstrom), charge = 0, multiplicity = 1:

       Center              X                  Y                   Z               Mass       
    ------------   -----------------  -----------------  -----------------  -----------------
         C            0.447711796350    -0.301421819259     0.868844181154    12.000000000000
         O            0.481102550951    -0.152987672212    -0.811495835813    15.994914619560
         C           -1.624999183703     0.459313796403    -0.425192573773    12.000000000000
         H           -2.299784367081     1.302573278376    -0.277061129748     1.007825032070
         N           -0.503968158420     0.757602039714    -1.059972639498    14.003074004780
         O           -0.617769372553     0.222435823540     1.300733532981    15.994914619560
         N            1.449509821383    -0.906317799743     1.351727309510    14.003074004780
         C           -0.005575203389     2.130886790638    -1.119498672175    12.000000000000
         H            0.730499857968     2.180701816037    -1.921297209163     1.007825032070
         H           -0.839749966756     2.801088156487    -1.335374595660     1.007825032070
         H            0.460333105023     2.382967307917    -0.161346641560     1.007825032070
         C            2.528395000117    -1.345622821994     0.469740458834    12.000000000000
         H            2.186081258326    -2.100037805046    -0.248048315737     1.007825032070
         H            2.963600255314    -0.511930536643    -0.092721308888     1.007825032070
         H            3.305832403782    -1.790192975485     1.093864743783     1.007825032070
         C           -2.214613273706    -0.907960957215    -0.429730816238    12.000000000000
         H           -2.780646584437    -1.059434997322     0.491524328017     1.007825032070
         H           -2.903530913683    -0.987983723892    -1.280797387982     1.007825032070
         H           -1.443323507614    -1.672694918493    -0.516234088919     1.007825032070

  Running in c1 symmetry.

  Rotational constants: A =      0.08329  B =      0.04379  C =      0.03646 [cm^-1]
  Rotational constants: A =   2497.09825  B =   1312.84626  C =   1092.98708 [MHz]
  Nuclear repulsion =  486.866857106473049

  Charge       = 0
  Multiplicity = 1
  Electrons    = 70
  Nalpha       = 35
  Nbeta        = 35

  ==> Algorithm <==

  SCF Algorithm Type is DF.
  DIIS enabled.
  MOM disabled.
  Fractional occupation disabled.
  Guess Type is SAD.
  Energy threshold   = 1.00e-10
  Density threshold  = 1.00e-10
  Integral threshold = 0.00e+00

  ==> Primary Basis <==

  Basis Set: 6-31+G(D)
    Blend: 6-31+G(D)
    Number of shells: 92
    Number of basis function: 191
    Number of Cartesian functions: 191
    Spherical Harmonics?: false
    Max angular momentum: 2

   => Loading Basis Set <=

    Name: (6-31+G(D) AUX)
    Role: JKFIT
    Keyword: DF_BASIS_SCF
    atoms 1, 3, 8, 12, 16       entry C          line   194 file /root/psi4conda/share/psi4/basis/heavy-aug-cc-pvdz-jkfit.gbs 
    atoms 2, 6                  entry O          line   310 file /root/psi4conda/share/psi4/basis/heavy-aug-cc-pvdz-jkfit.gbs 
    atoms 4, 9-11, 13-15, 17-19 entry H          line   116 file /root/psi4conda/share/psi4/basis/heavy-aug-cc-pvdz-jkfit.gbs 
    atoms 5, 7                  entry N          line   252 file /root/psi4conda/share/psi4/basis/heavy-aug-cc-pvdz-jkfit.gbs 

  ==> Pre-Iterations <==

   -------------------------------------------------------
    Irrep   Nso     Nmo     Nalpha   Nbeta   Ndocc  Nsocc
   -------------------------------------------------------
     A        191     191       0       0       0       0
   -------------------------------------------------------
    Total     191     191      35      35      35       0
   -------------------------------------------------------

  ==> Integral Setup <==

  ==> DiskDFJK: Density-Fitted J/K Matrices <==

    J tasked:                  Yes
    K tasked:                  Yes
    wK tasked:                  No
    OpenMP threads:              1
    Integrals threads:           1
    Memory (MB):               375
    Algorithm:                Core
    Integral Cache:           NONE
    Schwarz Cutoff:          1E-12
    Fitting Condition:       1E-12

   => Auxiliary Basis Set <=

  Basis Set: (6-31+G(D) AUX)
    Blend: HEAVY-AUG-CC-PVDZ-JKFIT
    Number of shells: 342
    Number of basis function: 1159
    Number of Cartesian functions: 1159
    Spherical Harmonics?: false
    Max angular momentum: 3

  Minimum eigenvalue in the overlap matrix is 4.8271935839E-05.
  Using Symmetric Orthogonalization.

  SCF Guess: Superposition of Atomic Densities via on-the-fly atomic UHF.

  ==> Iterations <==

                           Total Energy        Delta E     RMS |[F,P]|

   @DF-RHF iter   0:  -456.74024673301204   -4.56740e+02   2.76999e-02 
   @DF-RHF iter   1:  -453.40214299705372    3.33810e+00   3.07359e-03 
   @DF-RHF iter   2:  -453.59706320450732   -1.94920e-01   1.57067e-03 DIIS
   @DF-RHF iter   3:  -453.63722000713864   -4.01568e-02   5.14560e-04 DIIS
   @DF-RHF iter   4:  -453.64614670808209   -8.92670e-03   1.78773e-04 DIIS
   @DF-RHF iter   5:  -453.64746141549296   -1.31471e-03   8.58040e-05 DIIS
   @DF-RHF iter   6:  -453.64786199057062   -4.00575e-04   3.93045e-05 DIIS
   @DF-RHF iter   7:  -453.64797764393614   -1.15653e-04   1.56040e-05 DIIS
   @DF-RHF iter   8:  -453.64799239867443   -1.47547e-05   5.72267e-06 DIIS
   @DF-RHF iter   9:  -453.64799454845468   -2.14978e-06   2.35693e-06 DIIS
   @DF-RHF iter  10:  -453.64799479238081   -2.43926e-07   8.50566e-07 DIIS
   @DF-RHF iter  11:  -453.64799482531600   -3.29352e-08   2.26804e-07 DIIS
   @DF-RHF iter  12:  -453.64799482756052   -2.24452e-09   1.04977e-07 DIIS
   @DF-RHF iter  13:  -453.64799482793956   -3.79032e-10   3.23310e-08 DIIS
   @DF-RHF iter  14:  -453.64799482799128   -5.17275e-11   1.55318e-08 DIIS
   @DF-RHF iter  15:  -453.64799482800112   -9.83391e-12   5.33143e-09 DIIS
   @DF-RHF iter  16:  -453.64799482800333   -2.21689e-12   2.29750e-09 DIIS
   @DF-RHF iter  17:  -453.64799482800584   -2.50111e-12   9.74735e-10 DIIS
   @DF-RHF iter  18:  -453.64799482800606   -2.27374e-13   3.54140e-10 DIIS
   @DF-RHF iter  19:  -453.64799482800453    1.53477e-12   1.53065e-10 DIIS
   @DF-RHF iter  20:  -453.64799482800754   -3.01270e-12   5.86525e-11 DIIS

  ==> Post-Iterations <==

    Orbital Energies [Eh]
    ---------------------

    Doubly Occupied:                                                      

       1A    -20.614808     2A    -20.562361     3A    -15.683861  
       4A    -15.529390     5A    -11.385474     6A    -11.379243  
       7A    -11.290795     8A    -11.262994     9A    -11.232285  
      10A     -1.470452    11A     -1.364988    12A     -1.219644  
      13A     -1.171042    14A     -1.070748    15A     -0.968220  
      16A     -0.920400    17A     -0.835474    18A     -0.756193  
      19A     -0.720407    20A     -0.702840    21A     -0.675903  
      22A     -0.633644    23A     -0.624691    24A     -0.610540  
      25A     -0.589371    26A     -0.581989    27A     -0.579669  
      28A     -0.564594    29A     -0.540635    30A     -0.534400  
      31A     -0.500864    32A     -0.466220    33A     -0.441352  
      34A     -0.370154    35A     -0.351685  

    Virtual:                                                              

      36A      0.053104    37A      0.071764    38A      0.080132  
      39A      0.084345    40A      0.100442    41A      0.102606  
      42A      0.111520    43A      0.116081    44A      0.119284  
      45A      0.126228    46A      0.136894    47A      0.146714  
      48A      0.159983    49A      0.165536    50A      0.170898  
      51A      0.180018    52A      0.190622    53A      0.209799  
      54A      0.213918    55A      0.221269    56A      0.222488  
      57A      0.239805    58A      0.243255    59A      0.280601  
      60A      0.304832    61A      0.308770    62A      0.316309  
      63A      0.320001    64A      0.337799    65A      0.340885  
      66A      0.348438    67A      0.352299    68A      0.367529  
      69A      0.372964    70A      0.395150    71A      0.403441  
      72A      0.404747    73A      0.406348    74A      0.417428  
      75A      0.422713    76A      0.427327    77A      0.438756  
      78A      0.451693    79A      0.456077    80A      0.462123  
      81A      0.476664    82A      0.491482    83A      0.505743  
      84A      0.520439    85A      0.528507    86A      0.534915  
      87A      0.567509    88A      0.600860    89A      0.606278  
      90A      0.672544    91A      0.771884    92A      0.835226  
      93A      0.867398    94A      0.909310    95A      0.919057  
      96A      0.937605    97A      0.949019    98A      0.956674  
      99A      0.964955   100A      0.981386   101A      0.998741  
     102A      1.021659   103A      1.034479   104A      1.104048  
     105A      1.117723   106A      1.154042   107A      1.168501  
     108A      1.190588   109A      1.200948   110A      1.209410  
     111A      1.224344   112A      1.261141   113A      1.264278  
     114A      1.280233   115A      1.287929   116A      1.312855  
     117A      1.325141   118A      1.355431   119A      1.373238  
     120A      1.384504   121A      1.395141   122A      1.414681  
     123A      1.430720   124A      1.449891   125A      1.479268  
     126A      1.525470   127A      1.531228   128A      1.590333  
     129A      1.604328   130A      1.657568   131A      1.688135  
     132A      1.696786   133A      1.720903   134A      1.741623  
     135A      1.756854   136A      1.784124   137A      1.814191  
     138A      1.816879   139A      1.877466   140A      1.880980  
     141A      1.926143   142A      1.960477   143A      2.005490  
     144A      2.025808   145A      2.070729   146A      2.120988  
     147A      2.159469   148A      2.200439   149A      2.209867  
     150A      2.255448   151A      2.294893   152A      2.311008  
     153A      2.335338   154A      2.382681   155A      2.437472  
     156A      2.457263   157A      2.458483   158A      2.480098  
     159A      2.520831   160A      2.535912   161A      2.564233  
     162A      2.577809   163A      2.590025   164A      2.605618  
     165A      2.659552   166A      2.688233   167A      2.725985  
     168A      2.773817   169A      2.787119   170A      2.815437  
     171A      2.955063   172A      2.976888   173A      3.026109  
     174A      3.066733   175A      3.106664   176A      3.133136  
     177A      3.188016   178A      3.278798   179A      3.355541  
     180A      3.396774   181A      3.460072   182A      3.636646  
     183A      4.575299   184A      4.669042   185A      4.692439  
     186A      4.786387   187A      4.792156   188A      4.854263  
     189A      4.919728   190A      4.951537   191A      5.124611  

    Final Occupation by Irrep:
              A 
    DOCC [    35 ]

  Energy converged.

  @DF-RHF Final Energy:  -453.64799482800754

   => Energetics <=

    Nuclear Repulsion Energy =            486.8668571064730486
    One-Electron Energy =               -1584.6150473715113094
    Two-Electron Energy =                 644.1001954370308340
    Total Energy =                       -453.6479948280075405



Properties will be evaluated at   0.000000,   0.000000,   0.000000 [a0]

Properties computed using the SCF density matrix

  Nuclear Dipole Moment: [e a0]
     X:    -0.5853      Y:     0.5117      Z:    -3.9804

  Electronic Dipole Moment: [e a0]
     X:    -0.9126      Y:     0.5059      Z:     2.2576

  Dipole Moment: [e a0]
     X:    -1.4979      Y:     1.0177      Z:    -1.7228     Total:     2.4995

  Dipole Moment: [D]
     X:    -3.8072      Y:     2.5867      Z:    -4.3790     Total:     6.3531


*** tstop() called on localhost.localdomain at Tue Jan 15 09:22:45 2019
Module time:
	user time   =      14.46 seconds =       0.24 minutes
	system time =       0.40 seconds =       0.01 minutes
	total time  =         15 seconds =       0.25 minutes
Total time:
	user time   =     123.77 seconds =       2.06 minutes
	system time =       4.34 seconds =       0.07 minutes
	total time  =        128 seconds =       2.13 minutes

  //>>>>>>>>>>>>>>>>>>>>>>>>>>>>>>>>>>>//
  //               DFMP2               //
  //<<<<<<<<<<<<<<<<<<<<<<<<<<<<<<<<<<<//

   => Loading Basis Set <=

    Name: (6-31+G(D) AUX)
    Role: RIFIT
    Keyword: DF_BASIS_MP2
    atoms 1, 3, 8, 12, 16       entry C          line   116 file /root/psi4conda/share/psi4/basis/heavy-aug-cc-pvdz-ri.gbs 
    atoms 2, 6                  entry O          line   208 file /root/psi4conda/share/psi4/basis/heavy-aug-cc-pvdz-ri.gbs 
    atoms 4, 9-11, 13-15, 17-19 entry H          line    44 file /root/psi4conda/share/psi4/basis/heavy-aug-cc-pvdz-ri.gbs 
    atoms 5, 7                  entry N          line   162 file /root/psi4conda/share/psi4/basis/heavy-aug-cc-pvdz-ri.gbs 

	 --------------------------------------------------------
	                          DF-MP2                         
	      2nd-Order Density-Fitted Moller-Plesset Theory     
	              RMP2 Wavefunction,   1 Threads             
	                                                         
	        Rob Parrish, Justin Turney, Andy Simmonett,      
	           Ed Hohenstein, and C. David Sherrill          
	 --------------------------------------------------------

   => Auxiliary Basis Set <=

  Basis Set: (6-31+G(D) AUX)
    Blend: HEAVY-AUG-CC-PVDZ-RI
    Number of shells: 258
    Number of basis function: 788
    Number of Cartesian functions: 924
    Spherical Harmonics?: true
    Max angular momentum: 3

	 --------------------------------------------------------
	                 NBF =   191, NAUX =   788
	 --------------------------------------------------------
	   CLASS    FOCC     OCC    AOCC    AVIR     VIR    FVIR
	   PAIRS       9      35      26     156     156       0
	 --------------------------------------------------------


         ------------------------------------------------------------
                                     CPHF                           
                                  Rob Parrish                       
         ------------------------------------------------------------

  ==> Geometry <==

    Molecular point group: c1
    Full point group: C1

    Geometry (in Angstrom), charge = 0, multiplicity = 1:

       Center              X                  Y                   Z               Mass       
    ------------   -----------------  -----------------  -----------------  -----------------
         C            0.447711796350    -0.301421819259     0.868844181154    12.000000000000
         O            0.481102550951    -0.152987672212    -0.811495835813    15.994914619560
         C           -1.624999183703     0.459313796403    -0.425192573773    12.000000000000
         H           -2.299784367081     1.302573278376    -0.277061129748     1.007825032070
         N           -0.503968158420     0.757602039714    -1.059972639498    14.003074004780
         O           -0.617769372553     0.222435823540     1.300733532981    15.994914619560
         N            1.449509821383    -0.906317799743     1.351727309510    14.003074004780
         C           -0.005575203389     2.130886790638    -1.119498672175    12.000000000000
         H            0.730499857968     2.180701816037    -1.921297209163     1.007825032070
         H           -0.839749966756     2.801088156487    -1.335374595660     1.007825032070
         H            0.460333105023     2.382967307917    -0.161346641560     1.007825032070
         C            2.528395000117    -1.345622821994     0.469740458834    12.000000000000
         H            2.186081258326    -2.100037805046    -0.248048315737     1.007825032070
         H            2.963600255314    -0.511930536643    -0.092721308888     1.007825032070
         H            3.305832403782    -1.790192975485     1.093864743783     1.007825032070
         C           -2.214613273706    -0.907960957215    -0.429730816238    12.000000000000
         H           -2.780646584437    -1.059434997322     0.491524328017     1.007825032070
         H           -2.903530913683    -0.987983723892    -1.280797387982     1.007825032070
         H           -1.443323507614    -1.672694918493    -0.516234088919     1.007825032070

  Nuclear repulsion =  486.866857106473049
  Reference energy  = -453.647994828007540

  ==> Basis Set <==

  Basis Set: 6-31+G(D)
    Blend: 6-31+G(D)
    Number of shells: 92
    Number of basis function: 191
    Number of Cartesian functions: 191
    Spherical Harmonics?: false
    Max angular momentum: 2

  ==> CGRSolver (by Rob Parrish) <==

   Number of roots    =         1
   Preconditioning    =    JACOBI
   Convergence cutoff =     1E-06
   Maximum iterations =       100

  ==> CPHFRHamiltonian (by Rob Parrish) <== 

  ==> DiskDFJK: Density-Fitted J/K Matrices <==

    J tasked:                  Yes
    K tasked:                  Yes
    wK tasked:                  No
    OpenMP threads:              1
    Integrals threads:           1
    Memory (MB):               375
    Algorithm:                Core
    Integral Cache:           NONE
    Schwarz Cutoff:          1E-12
    Fitting Condition:       1E-12

   => Auxiliary Basis Set <=

  Basis Set: (6-31+G(D) AUX)
    Blend: HEAVY-AUG-CC-PVDZ-JKFIT
    Number of shells: 342
    Number of basis function: 1159
    Number of Cartesian functions: 1159
    Spherical Harmonics?: false
    Max angular momentum: 3

  ==> CPHF Iterations <==

  => Iterations <=

             Iter  Converged  Remaining    Residual
  CGR           1          0          1   1.823E-01
  CGR           2          0          1   5.024E-02
  CGR           3          0          1   2.744E-02
  CGR           4          0          1   8.325E-03
  CGR           5          0          1   3.665E-03
  CGR           6          0          1   1.143E-03
  CGR           7          0          1   5.278E-04
  CGR           8          0          1   2.065E-04
  CGR           9          0          1   8.230E-05
  CGR          10          0          1   3.400E-05
  CGR          11          0          1   1.169E-05
  CGR          12          0          1   4.176E-06
  CGR          13          0          1   1.403E-06
  CGR          14          1          0   3.738E-07

    CGRSolver converged.

  ==> DFCorrGrad: Density-Fitted Correlated Gradients <==

    OpenMP threads:              1
    Integrals threads:           1
    Memory (MB):               375
    Schwarz Cutoff:          0E+00
    Fitting Condition:       1E-12

   => Auxiliary Basis Set <=

  Basis Set: (6-31+G(D) AUX)
    Blend: HEAVY-AUG-CC-PVDZ-JKFIT
    Number of shells: 342
    Number of basis function: 1159
    Number of Cartesian functions: 1159
    Spherical Harmonics?: false
    Max angular momentum: 3

	-----------------------------------------------------------
	 ==================> DF-MP2 Energies <==================== 
	-----------------------------------------------------------
	 Reference Energy          =    -453.6479948280075405 [Eh]
	 Singles Energy            =      -0.0000000000000000 [Eh]
	 Same-Spin Energy          =      -0.3634382468155197 [Eh]
	 Opposite-Spin Energy      =      -1.0067364567372541 [Eh]
	 Correlation Energy        =      -1.3701747035527738 [Eh]
	 Total Energy              =    -455.0181695315603179 [Eh]
	-----------------------------------------------------------
	 ================> DF-SCS-MP2 Energies <================== 
	-----------------------------------------------------------
	 SCS Same-Spin Scale       =       0.3333333333333333 [-]
	 SCS Opposite-Spin Scale   =       1.2000000000000000 [-]
	 SCS Same-Spin Energy      =      -0.1211460822718399 [Eh]
	 SCS Opposite-Spin Energy  =      -1.2080837480847049 [Eh]
	 SCS Correlation Energy    =      -1.3292298303565449 [Eh]
	 SCS Total Energy          =    -454.9772246583640936 [Eh]
	-----------------------------------------------------------


  -Total Gradient:
     Atom            X                  Y                   Z
    ------   -----------------  -----------------  -----------------
       1        0.001418410455    -0.000644183683    -0.000299139154
       2       -0.000037819152    -0.000038011986     0.000232097259
       3       -0.000057279456     0.000043192130    -0.000137102222
       4       -0.000013127826     0.000002720465    -0.000023161326
       5       -0.000099581119     0.000060480217     0.000027197927
       6       -0.000600244991     0.000255616212     0.000361477161
       7       -0.000542851784     0.000268098274    -0.000050235173
       8        0.000020284822     0.000040971148    -0.000037759510
       9       -0.000007603821    -0.000007926734    -0.000010287441
      10       -0.000008842930    -0.000001843118     0.000006292710
      11        0.000008478135    -0.000008974190    -0.000002918743
      12       -0.000087127178     0.000045999561    -0.000053279139
      13        0.000027540859     0.000003839633     0.000001227260
      14        0.000006410233    -0.000020169427     0.000000093838
      15       -0.000019404809     0.000013369417    -0.000004535878
      16       -0.000005258766    -0.000003460040    -0.000013580302
      17       -0.000005175882     0.000000112098     0.000002827781
      18        0.000003622867     0.000000844623    -0.000004092933
      19       -0.000000429664    -0.000010674600     0.000004877883


*** tstop() called on localhost.localdomain at Tue Jan 15 09:23:24 2019
Module time:
	user time   =      52.14 seconds =       0.87 minutes
	system time =       1.85 seconds =       0.03 minutes
	total time  =         54 seconds =       0.90 minutes
Total time:
	user time   =     161.45 seconds =       2.69 minutes
	system time =       5.79 seconds =       0.10 minutes
	total time  =        167 seconds =       2.78 minutes

  //>>>>>>>>>>>>>>>>>>>>>>>>>>>>>>>>>>>//
  //   Loading displacement 3 of 103   //
  //<<<<<<<<<<<<<<<<<<<<<<<<<<<<<<<<<<<//
gradient() will perform analytic gradient computation.

*** tstart() called on localhost.localdomain
*** at Tue Jan 15 09:23:25 2019

    SCF Algorithm Type (re)set to DF.

*** tstart() called on localhost.localdomain
*** at Tue Jan 15 09:23:25 2019

   => Loading Basis Set <=

    Name: 6-31+G(D)
    Role: ORBITAL
    Keyword: BASIS
    atoms 1, 3, 8, 12, 16       entry C          line   119 file /root/psi4conda/share/psi4/basis/6-31pg_d_.gbs 
    atoms 2, 6                  entry O          line   157 file /root/psi4conda/share/psi4/basis/6-31pg_d_.gbs 
    atoms 4, 9-11, 13-15, 17-19 entry H          line    46 file /root/psi4conda/share/psi4/basis/6-31pg_d_.gbs 
    atoms 5, 7                  entry N          line   138 file /root/psi4conda/share/psi4/basis/6-31pg_d_.gbs 


         ---------------------------------------------------------
                                   SCF
            by Justin Turney, Rob Parrish, Andy Simmonett
                             and Daniel Smith
                              RHF Reference
                        1 Threads,    500 MiB Core
         ---------------------------------------------------------

  ==> Geometry <==

    Molecular point group: c1
    Full point group: C1

    Geometry (in Angstrom), charge = 0, multiplicity = 1:

       Center              X                  Y                   Z               Mass       
    ------------   -----------------  -----------------  -----------------  -----------------
         C            0.446994189693    -0.302129242784     0.868843292085    12.000000000000
         O            0.481157562360    -0.152938145166    -0.811503113758    15.994914619560
         C           -1.624938789669     0.459360402853    -0.425165880791    12.000000000000
         H           -2.299726867709     1.302619847034    -0.277047406724     1.007825032070
         N           -0.503927237984     0.757634379919    -1.059987038830    14.003074004780
         O           -0.617660712519     0.222554262502     1.300741915513    15.994914619560
         N            1.449629047741    -0.906180635747     1.351721801611    14.003074004780
         C           -0.005547072713     2.130920997283    -1.119577076897    12.000000000000
         H            0.730506056200     2.180712462688    -1.921397211291     1.007825032070
         H           -0.839733092905     2.801107607705    -1.335455311243     1.007825032070
         H            0.460384904793     2.383040632582    -0.161446848132     1.007825032070
         C            2.528494126987    -1.345509380644     0.469722181036    12.000000000000
         H            2.186167262784    -2.099953613685    -0.248029591938     1.007825032070
         H            2.963677487374    -0.511834284037    -0.092782003670     1.007825032070
         H            3.305951909084    -1.790050191250     1.093841982082     1.007825032070
         C           -2.214541858776    -0.907919322199    -0.429637890328    12.000000000000
         H           -2.780549201646    -1.059364013037     0.491638033646     1.007825032070
         H           -2.903481694920    -0.987979076455    -1.280683015860     1.007825032070
         H           -1.443248183470    -1.672650187462    -0.516133678762     1.007825032070

  Running in c1 symmetry.

  Rotational constants: A =      0.08329  B =      0.04379  C =      0.03646 [cm^-1]
  Rotational constants: A =   2497.05406  B =   1312.88619  C =   1092.98141 [MHz]
  Nuclear repulsion =  486.868842552521528

  Charge       = 0
  Multiplicity = 1
  Electrons    = 70
  Nalpha       = 35
  Nbeta        = 35

  ==> Algorithm <==

  SCF Algorithm Type is DF.
  DIIS enabled.
  MOM disabled.
  Fractional occupation disabled.
  Guess Type is SAD.
  Energy threshold   = 1.00e-10
  Density threshold  = 1.00e-10
  Integral threshold = 0.00e+00

  ==> Primary Basis <==

  Basis Set: 6-31+G(D)
    Blend: 6-31+G(D)
    Number of shells: 92
    Number of basis function: 191
    Number of Cartesian functions: 191
    Spherical Harmonics?: false
    Max angular momentum: 2

   => Loading Basis Set <=

    Name: (6-31+G(D) AUX)
    Role: JKFIT
    Keyword: DF_BASIS_SCF
    atoms 1, 3, 8, 12, 16       entry C          line   194 file /root/psi4conda/share/psi4/basis/heavy-aug-cc-pvdz-jkfit.gbs 
    atoms 2, 6                  entry O          line   310 file /root/psi4conda/share/psi4/basis/heavy-aug-cc-pvdz-jkfit.gbs 
    atoms 4, 9-11, 13-15, 17-19 entry H          line   116 file /root/psi4conda/share/psi4/basis/heavy-aug-cc-pvdz-jkfit.gbs 
    atoms 5, 7                  entry N          line   252 file /root/psi4conda/share/psi4/basis/heavy-aug-cc-pvdz-jkfit.gbs 

  ==> Pre-Iterations <==

   -------------------------------------------------------
    Irrep   Nso     Nmo     Nalpha   Nbeta   Ndocc  Nsocc
   -------------------------------------------------------
     A        191     191       0       0       0       0
   -------------------------------------------------------
    Total     191     191      35      35      35       0
   -------------------------------------------------------

  ==> Integral Setup <==

  ==> DiskDFJK: Density-Fitted J/K Matrices <==

    J tasked:                  Yes
    K tasked:                  Yes
    wK tasked:                  No
    OpenMP threads:              1
    Integrals threads:           1
    Memory (MB):               375
    Algorithm:                Core
    Integral Cache:           NONE
    Schwarz Cutoff:          1E-12
    Fitting Condition:       1E-12

   => Auxiliary Basis Set <=

  Basis Set: (6-31+G(D) AUX)
    Blend: HEAVY-AUG-CC-PVDZ-JKFIT
    Number of shells: 342
    Number of basis function: 1159
    Number of Cartesian functions: 1159
    Spherical Harmonics?: false
    Max angular momentum: 3

  Minimum eigenvalue in the overlap matrix is 4.8275605022E-05.
[...]
     12   C               -0.00  0.00  0.00    0.01 -0.00 -0.01   -0.08  0.03  0.07   
     13   H                0.01 -0.01  0.00   -0.04  0.00  0.02    0.53  0.03 -0.25   
     14   H                0.00 -0.00  0.00   -0.04  0.03  0.02    0.33 -0.40 -0.29   
     15   H                0.00 -0.00 -0.01   -0.03  0.00  0.04    0.29 -0.09 -0.44   
     16   C               -0.06 -0.13 -0.00    0.02  0.02  0.00   -0.00  0.00 -0.00   
     17   H                0.16  0.50  0.24   -0.07 -0.04 -0.06   -0.00 -0.01 -0.00   
     18   H                0.14  0.49 -0.21   -0.06 -0.05  0.06   -0.02 -0.01  0.01   
     19   H                0.38  0.32 -0.02   -0.02 -0.01 -0.01    0.00  0.00  0.02   

  Vibration                       40                  41                  42          
  Freq [cm^-1]                1512.7449           1520.0515           1523.4581       
  Irrep                           A                   A                   A           
  Reduced mass [u]              1.0804              1.0485              1.0460        
  Force const [mDyne/A]         1.4567              1.4274              1.4304        
  Turning point v=0 [a0]        0.2714              0.2748              0.2749        
  RMS dev v=0 [a0 u^1/2]        0.1995              0.1990              0.1988        
  Char temp [K]               2176.4998           2187.0124           2191.9137       
  ----------------------------------------------------------------------------------
      1   C               -0.00  0.00 -0.00    0.00 -0.00 -0.00   -0.00 -0.00 -0.00   
      2   O                0.00  0.00  0.00   -0.00  0.00  0.00   -0.00 -0.00  0.00   
      3   C                0.02  0.03 -0.02    0.01  0.01  0.00   -0.01 -0.01 -0.01   
      4   H               -0.05 -0.04  0.03   -0.03 -0.02  0.01    0.01  0.00  0.04   
      5   N               -0.03 -0.02  0.01    0.01 -0.01 -0.01    0.01  0.01 -0.01   
      6   O               -0.00 -0.00 -0.00    0.00 -0.00  0.00   -0.00  0.00  0.00   
      7   N                0.00 -0.00  0.00   -0.00  0.00  0.00    0.00 -0.00  0.00   
      8   C                0.02 -0.01 -0.01    0.01 -0.00 -0.05   -0.00 -0.00 -0.01   
      9   H               -0.01 -0.06 -0.03    0.14 -0.40  0.06    0.05 -0.11  0.03   
     10   H                0.04  0.10  0.23   -0.08  0.09  0.63   -0.03  0.01  0.16   
     11   H               -0.18  0.22  0.02   -0.31  0.37  0.03   -0.05  0.09 -0.00   
     12   C               -0.00  0.00 -0.00   -0.00  0.00 -0.00    0.00  0.00 -0.00   
     13   H               -0.00 -0.01  0.01    0.01 -0.02  0.01   -0.01 -0.00  0.01   
     14   H                0.02 -0.00  0.01    0.01  0.00  0.01   -0.01  0.01  0.00   
     15   H                0.01  0.01 -0.01    0.01 -0.01 -0.02   -0.01 -0.00  0.01   
     16   C               -0.05  0.02 -0.00    0.01 -0.02  0.01    0.00 -0.00 -0.05   
     17   H                0.51 -0.13  0.31   -0.23  0.16 -0.10    0.13 -0.40 -0.02   
     18   H                0.43 -0.01 -0.37   -0.10 -0.08  0.10   -0.27  0.43  0.15   
     19   H               -0.28 -0.24  0.06    0.11  0.10 -0.19    0.11  0.03  0.69   

  Vibration                       43                  44                  45          
  Freq [cm^-1]                1538.8512           1542.1022           1549.4133       
  Irrep                           A                   A                   A           
  Reduced mass [u]              1.0468              1.0543              1.0485        
  Force const [mDyne/A]         1.4605              1.4772              1.4831        
  Turning point v=0 [a0]        0.2734              0.2721              0.2722        
  RMS dev v=0 [a0 u^1/2]        0.1978              0.1976              0.1971        
  Char temp [K]               2214.0608           2218.7383           2229.2574       
  ----------------------------------------------------------------------------------
      1   C               -0.01  0.01  0.00   -0.00  0.00  0.00    0.00 -0.00 -0.00   
      2   O                0.00 -0.00  0.00    0.00 -0.00  0.00   -0.00  0.00 -0.00   
      3   C                0.01  0.00  0.00   -0.01 -0.02  0.00    0.00  0.00 -0.00   
      4   H               -0.00 -0.01 -0.00    0.09  0.07 -0.05   -0.01 -0.01  0.01   
      5   N               -0.00  0.00  0.00   -0.02  0.01 -0.01    0.00 -0.00  0.00   
      6   O                0.01 -0.00 -0.00    0.00 -0.00 -0.00   -0.00  0.00  0.00   
      7   N               -0.01  0.00 -0.01   -0.00 -0.00 -0.00   -0.00 -0.01  0.00   
      8   C                0.00 -0.00  0.00   -0.04  0.02 -0.02    0.01 -0.00  0.00   
      9   H               -0.03  0.03 -0.03    0.49 -0.03  0.45   -0.07  0.00 -0.06   
     10   H                0.02  0.01 -0.03   -0.29 -0.27  0.13    0.04  0.04 -0.01   
     11   H               -0.01 -0.01  0.01    0.49  0.04 -0.27   -0.07 -0.00  0.04   
     12   C               -0.03  0.01 -0.04   -0.00 -0.01 -0.00   -0.02 -0.06  0.00   
     13   H               -0.07 -0.39  0.42   -0.07  0.03 -0.00   -0.37  0.33 -0.20   
     14   H                0.36  0.17  0.53    0.07 -0.01  0.05    0.37 -0.18  0.07   
     15   H                0.28  0.02 -0.38    0.05  0.10  0.01    0.28  0.65  0.12   
     16   C               -0.00 -0.00 -0.00    0.00  0.01  0.00    0.00 -0.00 -0.00   
     17   H               -0.01 -0.00 -0.01    0.06 -0.01  0.03   -0.02  0.00 -0.01   
     18   H               -0.02  0.00  0.01    0.07 -0.03 -0.05   -0.02  0.01  0.01   
     19   H                0.01  0.01  0.01   -0.07 -0.06 -0.02    0.02  0.02  0.00   

  Vibration                       46                  47                  48          
  Freq [cm^-1]                1671.4153           1873.2915           3078.5393       
  Irrep                           A                   A                   A           
  Reduced mass [u]              4.4700             11.2629              1.0340        
  Force const [mDyne/A]         7.3574             23.2869              5.7740        
  Turning point v=0 [a0]        0.1269              0.0755              0.1945        
  RMS dev v=0 [a0 u^1/2]        0.1898              0.1793              0.1398        
  Char temp [K]               2404.7909           2695.2453           4429.3258       
  ----------------------------------------------------------------------------------
      1   C               -0.02  0.01 -0.03    0.69 -0.38  0.09    0.00 -0.00  0.00   
      2   O                0.02  0.01  0.01   -0.02  0.02 -0.00   -0.00  0.00 -0.00   
      3   C                0.35  0.19 -0.14    0.00  0.03 -0.07    0.00 -0.00  0.00   
      4   H               -0.32 -0.44  0.15   -0.02 -0.01  0.05   -0.00  0.00  0.00   
      5   N               -0.28 -0.13  0.11   -0.03 -0.02  0.03    0.00  0.00 -0.00   
      6   O               -0.01  0.00  0.00   -0.18  0.09  0.07   -0.00  0.00 -0.00   
      7   N                0.02 -0.02  0.01   -0.38  0.21 -0.08   -0.00  0.00  0.00   
      8   C                0.03  0.02  0.01    0.00  0.01 -0.00    0.00  0.00  0.00   
      9   H                0.10  0.31  0.09    0.03  0.01  0.02   -0.00 -0.00  0.00   
     10   H               -0.02 -0.07 -0.08   -0.02 -0.01 -0.01    0.00 -0.00  0.00   
     11   H                0.17  0.15 -0.10    0.04 -0.02 -0.01   -0.00 -0.00 -0.01   
     12   C                0.00  0.00  0.00    0.01  0.00 -0.04   -0.02  0.01  0.04   
     13   H               -0.02  0.01 -0.00    0.19 -0.04 -0.05   -0.22 -0.46 -0.42   
     14   H               -0.04  0.02 -0.01    0.15 -0.11 -0.06    0.24  0.50 -0.31   
     15   H               -0.03 -0.00  0.04    0.07 -0.02 -0.16    0.27 -0.16  0.23   
     16   C               -0.05 -0.06  0.00    0.00 -0.01  0.01   -0.00 -0.00 -0.00   
     17   H               -0.20 -0.10 -0.10   -0.02 -0.04 -0.01    0.00  0.00 -0.00   
     18   H               -0.19 -0.03  0.11   -0.01  0.05  0.00    0.01  0.00  0.01   
     19   H                0.22  0.20  0.03   -0.00 -0.01  0.02   -0.00  0.00  0.00   

  Vibration                       49                  50                  51          
  Freq [cm^-1]                3094.4650           3107.1604           3153.6496       
  Irrep                           A                   A                   A           
  Reduced mass [u]              1.0441              1.0336              1.1044        
  Force const [mDyne/A]         5.8905              5.8791              6.4713        
  Turning point v=0 [a0]        0.1930              0.1936              0.1859        
  RMS dev v=0 [a0 u^1/2]        0.1395              0.1392              0.1382        
  Char temp [K]               4452.2393           4470.5051           4537.3928       
  ----------------------------------------------------------------------------------
      1   C                0.00 -0.00 -0.00   -0.00  0.00  0.00    0.00  0.00  0.00   
      2   O                0.00  0.00  0.00    0.00  0.00 -0.00    0.00 -0.00 -0.00   
      3   C                0.00  0.00 -0.00   -0.00  0.00 -0.00   -0.00  0.00  0.00   
      4   H               -0.01  0.01  0.00    0.01 -0.02 -0.00    0.00 -0.00 -0.00   
      5   N                0.00 -0.00 -0.00   -0.00 -0.00  0.00    0.00  0.00  0.00   
      6   O                0.00 -0.00  0.00    0.00 -0.00  0.00   -0.00 -0.00 -0.00   
      7   N               -0.00 -0.00  0.00    0.00 -0.00  0.00    0.00  0.00  0.00   
      8   C                0.00  0.00  0.00   -0.02 -0.04 -0.02    0.00 -0.00 -0.00   
      9   H               -0.01 -0.00  0.01    0.28  0.01 -0.31    0.00  0.00 -0.00   
     10   H                0.01 -0.01  0.00   -0.40  0.31 -0.11   -0.00  0.00 -0.00   
     11   H               -0.01 -0.00 -0.02    0.31  0.16  0.65    0.00  0.00  0.00   
     12   C                0.00 -0.00 -0.00   -0.00  0.00  0.00   -0.04 -0.08 -0.01   
     13   H                0.00  0.01  0.01   -0.00 -0.01 -0.01    0.23  0.47  0.46   
     14   H               -0.00 -0.00  0.00    0.00  0.00 -0.00    0.26  0.54 -0.37   
     15   H               -0.00  0.00 -0.00    0.00 -0.00  0.00    0.02 -0.04  0.02   
     16   C               -0.04 -0.03 -0.03   -0.00 -0.00 -0.00    0.00 -0.00  0.00   
     17   H                0.19  0.05 -0.34    0.00 -0.00 -0.01   -0.00 -0.00  0.00   
     18   H                0.53  0.06  0.66    0.01  0.00  0.02   -0.00 -0.00 -0.00   
     19   H               -0.25  0.24  0.02   -0.01  0.01  0.00   -0.00  0.00  0.00   

  Vibration                       52                  53                  54          
  Freq [cm^-1]                3191.0925           3192.7074           3209.7052       
  Irrep                           A                   A                   A           
  Reduced mass [u]              1.0915              1.1020              1.1027        
  Force const [mDyne/A]         6.5486              6.6182              6.6934        
  Turning point v=0 [a0]        0.1859              0.1850              0.1844        
  RMS dev v=0 [a0 u^1/2]        0.1373              0.1373              0.1370        
  Char temp [K]               4591.2647           4593.5881           4618.0441       
  ----------------------------------------------------------------------------------
      1   C                0.00 -0.00 -0.00    0.00 -0.00 -0.00   -0.00 -0.00  0.00   
      2   O               -0.00 -0.00  0.00   -0.00  0.00  0.00   -0.00  0.00  0.00   
      3   C                0.00 -0.00 -0.00    0.00 -0.00 -0.00    0.02 -0.02 -0.01   
      4   H               -0.03  0.03  0.01   -0.00  0.00  0.00   -0.22  0.28  0.05   
      5   N               -0.00  0.00  0.00   -0.00 -0.00  0.00   -0.00 -0.00  0.00   
      6   O               -0.00 -0.00  0.00   -0.00  0.00  0.00    0.00  0.00  0.00   
      7   N               -0.00  0.00  0.00    0.00 -0.00  0.00    0.00 -0.00 -0.00   
      8   C                0.00 -0.00 -0.00   -0.00  0.00 -0.00   -0.04  0.02 -0.07   
      9   H               -0.00  0.00  0.00   -0.00 -0.00  0.00   -0.22 -0.01  0.22   
     10   H                0.00 -0.00 -0.00    0.01 -0.00  0.00    0.49 -0.38  0.11   
     11   H                0.00  0.00 -0.00    0.00  0.00  0.00    0.25  0.14  0.53   
     12   C                0.00 -0.00  0.00   -0.05  0.04 -0.07    0.00 -0.00  0.00   
     13   H               -0.00 -0.00 -0.00    0.07  0.18  0.14   -0.00 -0.00 -0.00   
     14   H                0.00  0.01 -0.00   -0.12 -0.23  0.13    0.00  0.00 -0.00   
     15   H               -0.02  0.01 -0.02    0.65 -0.37  0.54   -0.01  0.00 -0.00   
     16   C               -0.02  0.03 -0.08   -0.00  0.00 -0.00   -0.00  0.00  0.00   
     17   H               -0.40 -0.10  0.63   -0.01 -0.00  0.02    0.02  0.01 -0.04   
     18   H                0.31  0.04  0.38    0.01  0.00  0.01   -0.01 -0.00 -0.01   
     19   H                0.30 -0.30 -0.05    0.01 -0.01 -0.00    0.03 -0.03 -0.00   

  Vibration                       55                  56                  57          
  Freq [cm^-1]                3218.0344           3241.8621           3243.5290       
  Irrep                           A                   A                   A           
  Reduced mass [u]              1.0942              1.1054              1.1037        
  Force const [mDyne/A]         6.6765              6.8445              6.8410        
  Turning point v=0 [a0]        0.1849              0.1833              0.1834        
  RMS dev v=0 [a0 u^1/2]        0.1368              0.1363              0.1362        
  Char temp [K]               4630.0279           4664.3107           4666.7089       
  ----------------------------------------------------------------------------------
      1   C               -0.00  0.00 -0.00    0.00 -0.00 -0.00    0.00 -0.00  0.00   
      2   O               -0.00  0.00 -0.00   -0.00 -0.00  0.00    0.00 -0.00  0.00   
      3   C                0.05 -0.06 -0.01   -0.00  0.00  0.00   -0.01  0.02  0.00   
      4   H               -0.55  0.69  0.13    0.04 -0.06 -0.01    0.15 -0.20 -0.04   
      5   N               -0.00 -0.00  0.00    0.00  0.00 -0.00    0.00  0.00 -0.00   
      6   O                0.00  0.00  0.00    0.00  0.00  0.00    0.00 -0.00 -0.00   
      7   N                0.00 -0.00  0.00   -0.00  0.00 -0.00   -0.00  0.00 -0.00   
      8   C                0.01 -0.01  0.03    0.06 -0.02 -0.04   -0.05  0.02  0.03   
      9   H                0.15  0.01 -0.15   -0.45 -0.03  0.50    0.31  0.02 -0.35   
     10   H               -0.16  0.13 -0.04   -0.33  0.26 -0.09    0.26 -0.20  0.07   
     11   H               -0.10 -0.05 -0.20    0.05  0.01  0.07   -0.02 -0.00 -0.02   
     12   C               -0.00 -0.00  0.00   -0.00  0.00 -0.00   -0.00 -0.00  0.00   
     13   H                0.00  0.00  0.00   -0.00 -0.00 -0.00    0.00  0.00  0.00   
     14   H                0.00  0.00 -0.00   -0.00 -0.00  0.00    0.00  0.00 -0.00   
     15   H               -0.00  0.00 -0.00    0.00 -0.00  0.00    0.00 -0.00  0.00   
     16   C               -0.02  0.01  0.01   -0.04  0.02  0.02   -0.06  0.03  0.03   
     17   H                0.08  0.02 -0.13    0.16  0.05 -0.26    0.20  0.06 -0.34   
     18   H               -0.01 -0.00 -0.01    0.03  0.01  0.05    0.04  0.01  0.07   
     19   H                0.14 -0.13 -0.01    0.35 -0.34 -0.03    0.46 -0.46 -0.05   

  ==> Thermochemistry Components <==

  Entropy, S
    Electronic S            0.000 [cal/(mol K)]        0.000 [J/(mol K)]       0.00000000 [mEh/K] (multiplicity = 1)
    Translational S        40.502 [cal/(mol K)]      169.460 [J/(mol K)]       0.06454374 [mEh/K] (mol. weight = 130.0742 [u], P = 101325.00 [Pa])
    Rotational S           28.885 [cal/(mol K)]      120.857 [J/(mol K)]       0.04603185 [mEh/K] (symmetry no. = 1)
    Vibrational S          26.583 [cal/(mol K)]      111.223 [J/(mol K)]       0.04236246 [mEh/K]
  Total S                  95.970 [cal/(mol K)]      401.539 [J/(mol K)]       0.15293806 [mEh/K]
  Correction S              0.000 [cal/(mol K)]        0.000 [J/(mol K)]       0.00000000 [mEh/K]

  Constant volume heat capacity, Cv
    Electronic Cv           0.000 [cal/(mol K)]        0.000 [J/(mol K)]       0.00000000 [mEh/K]
    Translational Cv        2.981 [cal/(mol K)]       12.472 [J/(mol K)]       0.00475022 [mEh/K]
    Rotational Cv           2.981 [cal/(mol K)]       12.472 [J/(mol K)]       0.00475022 [mEh/K]
    Vibrational Cv         28.706 [cal/(mol K)]      120.104 [J/(mol K)]       0.04574534 [mEh/K]
  Total Cv                 34.667 [cal/(mol K)]      145.048 [J/(mol K)]       0.05524579 [mEh/K]
  Correction Cv             0.000 [cal/(mol K)]        0.000 [J/(mol K)]       0.00000000 [mEh/K]

  Constant pressure heat capacity, Cp
    Electronic Cp           0.000 [cal/(mol K)]        0.000 [J/(mol K)]       0.00000000 [mEh/K]
    Translational Cp        4.968 [cal/(mol K)]       20.786 [J/(mol K)]       0.00791704 [mEh/K]
    Rotational Cp           2.981 [cal/(mol K)]       12.472 [J/(mol K)]       0.00475022 [mEh/K]
    Vibrational Cp         28.706 [cal/(mol K)]      120.104 [J/(mol K)]       0.04574534 [mEh/K]
  Total Cp                 36.654 [cal/(mol K)]      153.362 [J/(mol K)]       0.05841260 [mEh/K]
  Correction Cp             0.000 [cal/(mol K)]        0.000 [J/(mol K)]       0.00000000 [mEh/K]

  ==> Thermochemistry Energy Analysis <==

  Raw electronic energy, E0
  Total E0, Electronic energy at well bottom at 0 [K]                 -455.01817064 [Eh]

  Zero-point energy, ZPE_vib = Sum_i nu_i / 2
    Electronic ZPE          0.000 [kcal/mol]        0.000 [kJ/mol]       0.00000000 [Eh]
    Translational ZPE       0.000 [kcal/mol]        0.000 [kJ/mol]       0.00000000 [Eh]
    Rotational ZPE          0.000 [kcal/mol]        0.000 [kJ/mol]       0.00000000 [Eh]
    Vibrational ZPE        98.942 [kcal/mol]      413.975 [kJ/mol]       0.15767487 [Eh]       34605.630 [cm^-1]
  Correction ZPE           98.942 [kcal/mol]      413.975 [kJ/mol]       0.15767487 [Eh]       34605.630 [cm^-1]
  Total ZPE, Electronic energy at 0 [K]                               -454.86049576 [Eh]

  Thermal Energy, E (includes ZPE)
    Electronic E            0.000 [kcal/mol]        0.000 [kJ/mol]       0.00000000 [Eh]
    Translational E         0.889 [kcal/mol]        3.718 [kJ/mol]       0.00141628 [Eh]
    Rotational E            0.889 [kcal/mol]        3.718 [kJ/mol]       0.00141628 [Eh]
    Vibrational E         103.323 [kcal/mol]      432.302 [kJ/mol]       0.16465513 [Eh]
  Correction E            105.100 [kcal/mol]      439.739 [kJ/mol]       0.16748769 [Eh]
  Total E, Electronic energy at  298.15 [K]                           -454.85068295 [Eh]

  Enthalpy, H_trans = E_trans + k_B * T
    Electronic H            0.000 [kcal/mol]        0.000 [kJ/mol]       0.00000000 [Eh]
    Translational H         1.481 [kcal/mol]        6.197 [kJ/mol]       0.00236046 [Eh]
    Rotational H            0.889 [kcal/mol]        3.718 [kJ/mol]       0.00141628 [Eh]
    Vibrational H         103.323 [kcal/mol]      432.302 [kJ/mol]       0.16465513 [Eh]
  Correction H            105.693 [kcal/mol]      442.218 [kJ/mol]       0.16843187 [Eh]
  Total H, Enthalpy at  298.15 [K]                                    -454.84973877 [Eh]

  Gibbs free energy, G = H - T * S
    Electronic G            0.000 [kcal/mol]        0.000 [kJ/mol]       0.00000000 [Eh]
    Translational G       -10.594 [kcal/mol]      -44.327 [kJ/mol]      -0.01688325 [Eh]
    Rotational G           -7.723 [kcal/mol]      -32.315 [kJ/mol]      -0.01230812 [Eh]
    Vibrational G          95.397 [kcal/mol]      399.141 [kJ/mol]       0.15202476 [Eh]
  Correction G             77.079 [kcal/mol]      322.499 [kJ/mol]       0.12283339 [Eh]
  Total G, Free enthalpy at  298.15 [K]                               -454.89533725 [Eh]

    Psi4 stopped on: Tuesday, 15 January 2019 10:53AM
    Psi4 wall time for execution: 1:32:42.08

*** Psi4 exiting successfully. Buy a developer a beer!
