
Host: localhost.localdomain

Timers On : Thu Jan 17 10:16:10 2019
Timers Off: Thu Jan 17 10:16:11 2019

Wall Time:        0.73 seconds


-----------------------------------------------------------

***********************************************************

Host: localhost.localdomain

Timers On : Thu Jan 17 10:19:18 2019
Timers Off: Thu Jan 17 10:19:18 2019

Wall Time:        0.78 seconds


-----------------------------------------------------------

***********************************************************

Host: localhost.localdomain

Timers On : Thu Jan 17 10:25:07 2019
Timers Off: Thu Jan 17 10:25:08 2019

Wall Time:        0.68 seconds


-----------------------------------------------------------

***********************************************************

Host: localhost.localdomain

Timers On : Thu Jan 17 10:25:22 2019
Timers Off: Thu Jan 17 10:25:24 2019

Wall Time:        1.30 seconds

V: Grid                     :      0.850u      0.033s      0.528w      1 calls

-----------------------------------------------------------
V: Grid                     :      0.850u      0.033s      0.528w      1 calls

***********************************************************
