
    -----------------------------------------------------------------------
          Psi4: An Open-Source Ab Initio Electronic Structure Package
                               Psi4 1.2.1 release

                         Git: Rev {HEAD} 406f4de 


    R. M. Parrish, L. A. Burns, D. G. A. Smith, A. C. Simmonett,
    A. E. DePrince III, E. G. Hohenstein, U. Bozkaya, A. Yu. Sokolov,
    R. Di Remigio, R. M. Richard, J. F. Gonthier, A. M. James,
    H. R. McAlexander, A. Kumar, M. Saitow, X. Wang, B. P. Pritchard,
    P. Verma, H. F. Schaefer III, K. Patkowski, R. A. King, E. F. Valeev,
    F. A. Evangelista, J. M. Turney, T. D. Crawford, and C. D. Sherrill,
    J. Chem. Theory Comput. 13(7) pp 3185--3197 (2017).
    (doi: 10.1021/acs.jctc.7b00174)


                         Additional Contributions by
    P. Kraus, H. Kruse, M. H. Lechner, M. C. Schieber, and R. A. Shaw

    -----------------------------------------------------------------------


    Psi4 started on: Tuesday, 19 March 2019 01:08PM

    Process ID: 9339
    Host:       localhost.localdomain
    PSIDATADIR: /root/psi4conda/share/psi4
    Memory:     500.0 MiB
    Threads:    1
    
  ==> Input File <==

--------------------------------------------------------------------------
molecule{
0 1
 C   -0.039459960281   -0.372254806413   -1.203210807442
 O   -1.026225741635   -0.485671993583   -1.856051998616
CL    1.397224464973    0.364067905921    1.020767488590
CL   -1.502096113316    0.298728774337    1.026969231006
 H    1.150907526400    3.377154113532   -2.418402369498
 C    1.177124322235    2.341223972904   -2.072199455409
 H    1.204834583715    1.674028839643   -2.941096082674
 H    2.080885937992    2.193042972354   -1.481610952650
 O    0.083702927169    2.047737284391   -1.219056940645
 H   -0.740347886846    2.164945735722   -1.698482072781
 C   -0.047495688541   -0.412550356880    0.345510455901
CL    0.026943587051   -2.171958897201    0.656842131327
 H    0.985686061433   -0.368371645767   -1.612088096213
}

set{
   basis 6-311++G(d,p)
   freeze_core True
}


set_num_threads(16)
optimize('m06-2x')
--------------------------------------------------------------------------
  Threads set to 16 by Python driver.
gradient() will perform analytic gradient computation.

*** tstart() called on localhost.localdomain
*** at Tue Mar 19 13:08:02 2019

   => Loading Basis Set <=

    Name: 6-311++G(D,P)
    Role: ORBITAL
    Keyword: BASIS
    atoms 1, 6, 11       entry C          line   119 file /root/psi4conda/share/psi4/basis/6-311ppg_d_p_.gbs 
    atoms 2, 9           entry O          line   161 file /root/psi4conda/share/psi4/basis/6-311ppg_d_p_.gbs 
    atoms 3-4, 12        entry CL         line   458 file /root/psi4conda/share/psi4/basis/6-311ppg_d_p_.gbs 
    atoms 5, 7-8, 10, 13 entry H          line    42 file /root/psi4conda/share/psi4/basis/6-311ppg_d_p_.gbs 


         ---------------------------------------------------------
                                   SCF
            by Justin Turney, Rob Parrish, Andy Simmonett
                             and Daniel Smith
                              RKS Reference
                       16 Threads,    500 MiB Core
         ---------------------------------------------------------

  ==> Geometry <==

    Molecular point group: c1
    Full point group: C1

    Geometry (in Angstrom), charge = 0, multiplicity = 1:

       Center              X                  Y                   Z               Mass       
    ------------   -----------------  -----------------  -----------------  -----------------
         C           -0.039459960281    -0.372254806413    -1.203210807442    12.000000000000
         O           -1.026225741635    -0.485671993583    -1.856051998616    15.994914619560
         CL           1.397224464973     0.364067905921     1.020767488590    34.968852682000
         CL          -1.502096113316     0.298728774337     1.026969231006    34.968852682000
         H            1.150907526400     3.377154113532    -2.418402369498     1.007825032070
         C            1.177124322235     2.341223972904    -2.072199455409    12.000000000000
         H            1.204834583715     1.674028839643    -2.941096082674     1.007825032070
         H            2.080885937992     2.193042972354    -1.481610952650     1.007825032070
         O            0.083702927169     2.047737284391    -1.219056940645    15.994914619560
         H           -0.740347886846     2.164945735722    -1.698482072781     1.007825032070
         C           -0.047495688541    -0.412550356880     0.345510455901    12.000000000000
         CL           0.026943587051    -2.171958897201     0.656842131327    34.968852682000
         H            0.985686061433    -0.368371645767    -1.612088096213     1.007825032070

  Running in c1 symmetry.

  Rotational constants: A =      0.04868  B =      0.02847  C =      0.02656 [cm^-1]
  Rotational constants: A =   1459.52772  B =    853.39698  C =    796.33650 [MHz]
  Nuclear repulsion =  659.579299501209903

  Charge       = 0
  Multiplicity = 1
  Electrons    = 90
  Nalpha       = 45
  Nbeta        = 45

  ==> Algorithm <==

  SCF Algorithm Type is DF.
  DIIS enabled.
  MOM disabled.
  Fractional occupation disabled.
  Guess Type is SAD.
  Energy threshold   = 1.00e-08
  Density threshold  = 1.00e-08
  Integral threshold = 0.00e+00

  ==> Primary Basis <==

  Basis Set: 6-311++G(D,P)
    Blend: 6-311++G(D,P)
    Number of shells: 117
    Number of basis function: 235
    Number of Cartesian functions: 243
    Spherical Harmonics?: true
    Max angular momentum: 2

  ==> DFT Potential <==

   => Composite Functional: M06-2X <= 

    Hybrid M06-2X Meta-GGA XC Functional

    Y. Zhao and D. G. Truhlar,  Theor. Chem. Acc., 120, 215, 2008


    Deriv               =              1
    GGA                 =           TRUE
    Meta                =           TRUE

    Exchange Hybrid     =           TRUE
    MP2 Hybrid          =          FALSE

   => Exchange Functionals <=

    1.0000   XC_HYB_MGGA_X_M06_2X

   => Exact (HF) Exchange <=

    0.5400               HF 

   => Correlation Functionals <=

    1.0000   XC_MGGA_C_M06_2X

   => Molecular Quadrature <=

    Radial Scheme       =       TREUTLER
    Pruning Scheme      =           FLAT
    Nuclear Scheme      =       TREUTLER

    BS radius alpha     =              1
    Pruning alpha       =              1
    Radial Points       =             75
    Spherical Points    =            302
    Total Points        =         294162
    Total Blocks        =           2278
    Max Points          =            256
    Max Functions       =            205

   => Loading Basis Set <=

    Name: (6-311++G(D,P) AUX)
    Role: JKFIT
    Keyword: DF_BASIS_SCF
    atoms 1, 6, 11       entry C          line   162 file /root/psi4conda/share/psi4/basis/aug-cc-pvtz-jkfit.gbs 
    atoms 2, 9           entry O          line   286 file /root/psi4conda/share/psi4/basis/aug-cc-pvtz-jkfit.gbs 
    atoms 3-4, 12        entry CL         line   816 file /root/psi4conda/share/psi4/basis/aug-cc-pvtz-jkfit.gbs 
    atoms 5, 7-8, 10, 13 entry H          line    70 file /root/psi4conda/share/psi4/basis/aug-cc-pvtz-jkfit.gbs 

  ==> Pre-Iterations <==

   -------------------------------------------------------
    Irrep   Nso     Nmo     Nalpha   Nbeta   Ndocc  Nsocc
   -------------------------------------------------------
     A        235     235       0       0       0       0
   -------------------------------------------------------
    Total     235     235      45      45      45       0
   -------------------------------------------------------

  ==> Integral Setup <==

  ==> DiskDFJK: Density-Fitted J/K Matrices <==

    J tasked:                  Yes
    K tasked:                  Yes
    wK tasked:                  No
    OpenMP threads:             16
    Integrals threads:          16
    Memory (MB):               375
    Algorithm:                Core
    Integral Cache:           NONE
    Schwarz Cutoff:          1E-12
    Fitting Condition:       1E-12

   => Auxiliary Basis Set <=

  Basis Set: (6-311++G(D,P) AUX)
    Blend: AUG-CC-PVTZ-JKFIT
    Number of shells: 346
    Number of basis function: 1188
    Number of Cartesian functions: 1470
    Spherical Harmonics?: true
    Max angular momentum: 4

  Minimum eigenvalue in the overlap matrix is 2.3313498227E-05.
  Using Symmetric Orthogonalization.

  SCF Guess: Superposition of Atomic Densities via on-the-fly atomic UHF.

  ==> Iterations <==

                           Total Energy        Delta E     RMS |[F,P]|

   @DF-RKS iter   0: -1649.88275350071331   -1.64988e+03   7.54949e-02 
   @DF-RKS iter   1: -1648.15049357167459    1.73226e+00   8.79364e-03 
   @DF-RKS iter   2: -1648.11814741463195    3.23462e-02   1.07270e-02 DIIS
   @DF-RKS iter   3: -1648.28762179414866   -1.69474e-01   1.13824e-03 DIIS
   @DF-RKS iter   4: -1648.29058270464748   -2.96091e-03   9.02233e-04 DIIS
   @DF-RKS iter   5: -1648.29173175207006   -1.14905e-03   2.56735e-04 DIIS
   @DF-RKS iter   6: -1648.29183993526840   -1.08183e-04   5.76685e-05 DIIS
   @DF-RKS iter   7: -1648.29184684107440   -6.90581e-06   1.42033e-05 DIIS
   @DF-RKS iter   8: -1648.29184797660992   -1.13554e-06   8.89201e-06 DIIS
   @DF-RKS iter   9: -1648.29184816195516   -1.85345e-07   1.51060e-06 DIIS
   @DF-RKS iter  10: -1648.29184818245790   -2.05027e-08   8.14496e-07 DIIS
   @DF-RKS iter  11: -1648.29184818704243   -4.58454e-09   2.73866e-07 DIIS
   @DF-RKS iter  12: -1648.29184818780686   -7.64430e-10   9.18829e-08 DIIS
   @DF-RKS iter  13: -1648.29184818788076   -7.38964e-11   2.32314e-08 DIIS
   @DF-RKS iter  14: -1648.29184818788531   -4.54747e-12   1.45024e-08 DIIS
   @DF-RKS iter  15: -1648.29184818788463    6.82121e-13   6.33809e-09 DIIS

  ==> Post-Iterations <==

    Orbital Energies [Eh]
    ---------------------

    Doubly Occupied:                                                      

       1A   -102.702434     2A   -102.701600     3A   -102.698891  
       4A    -19.656030     5A    -19.648494     6A    -10.736595  
       7A    -10.674412     8A    -10.598671     9A     -9.845006  
      10A     -9.844286    11A     -9.841482    12A     -7.570317  
      13A     -7.569664    14A     -7.566996    15A     -7.563005  
      16A     -7.562775    17A     -7.562308    18A     -7.562082  
      19A     -7.559360    20A     -7.559278    21A     -1.219598  
      22A     -1.171324    23A     -1.060042    24A     -0.946809  
      25A     -0.945266    26A     -0.800494    27A     -0.799003  
      28A     -0.677187    29A     -0.612536    30A     -0.603284  
      31A     -0.571591    32A     -0.570098    33A     -0.541570  
      34A     -0.528945    35A     -0.522256    36A     -0.488950  
      37A     -0.436553    38A     -0.425771    39A     -0.422422  
      40A     -0.421628    41A     -0.392531    42A     -0.391180  
      43A     -0.377409    44A     -0.376384    45A     -0.357185  

    Virtual:                                                              

      46A     -0.019575    47A     -0.009359    48A      0.000554  
      49A      0.008665    50A      0.016045    51A      0.027025  
      52A      0.036702    53A      0.043729    54A      0.050004  
      55A      0.056223    56A      0.059920    57A      0.064755  
      58A      0.074592    59A      0.086833    60A      0.094160  
      61A      0.099917    62A      0.106032    63A      0.113718  
      64A      0.117500    65A      0.120792    66A      0.129202  
      67A      0.133589    68A      0.138386    69A      0.140255  
      70A      0.142567    71A      0.147906    72A      0.152889  
      73A      0.163062    74A      0.174189    75A      0.181567  
      76A      0.192701    77A      0.211225    78A      0.214239  
      79A      0.227183    80A      0.237852    81A      0.248134  
      82A      0.264206    83A      0.267444    84A      0.286721  
      85A      0.299686    86A      0.304530    87A      0.311691  
      88A      0.318946    89A      0.333119    90A      0.341467  
      91A      0.347123    92A      0.370341    93A      0.408913  
      94A      0.417091    95A      0.440020    96A      0.441965  
      97A      0.448231    98A      0.465349    99A      0.479991  
     100A      0.490174   101A      0.491464   102A      0.496696  
     103A      0.511033   104A      0.515290   105A      0.527380  
     106A      0.547830   107A      0.562409   108A      0.572502  
     109A      0.581808   110A      0.599169   111A      0.624628  
     112A      0.645205   113A      0.661725   114A      0.685701  
     115A      0.694259   116A      0.706846   117A      0.752179  
     118A      0.840555   119A      0.884814   120A      0.897503  
     121A      0.910114   122A      0.915046   123A      0.922702  
     124A      0.932222   125A      0.939906   126A      0.949639  
     127A      0.959870   128A      0.972811   129A      0.979855  
     130A      1.013356   131A      1.020191   132A      1.034714  
     133A      1.056513   134A      1.070407   135A      1.088066  
     136A      1.127245   137A      1.154430   138A      1.164550  
     139A      1.199051   140A      1.216285   141A      1.237146  
     142A      1.254174   143A      1.277057   144A      1.297617  
     145A      1.319866   146A      1.339101   147A      1.370944  
     148A      1.404348   149A      1.474367   150A      1.487891  
     151A      1.523855   152A      1.537722   153A      1.573741  
     154A      1.586950   155A      1.610599   156A      1.622840  
     157A      1.670854   158A      1.689354   159A      1.730905  
     160A      1.735139   161A      1.758634   162A      1.808815  
     163A      1.840030   164A      1.844243   165A      1.890998  
     166A      1.998961   167A      2.034662   168A      2.043839  
     169A      2.092120   170A      2.155528   171A      2.234861  
     172A      2.287721   173A      2.294524   174A      2.314140  
     175A      2.344638   176A      2.348667   177A      2.354851  
     178A      2.382376   179A      2.450812   180A      2.475624  
     181A      2.498144   182A      2.511000   183A      2.526725  
     184A      2.544092   185A      2.549186   186A      2.586673  
     187A      2.615251   188A      2.680791   189A      2.758031  
     190A      2.839563   191A      2.911891   192A      2.935892  
     193A      2.940753   194A      3.046662   195A      3.064876  
     196A      3.110434   197A      3.138537   198A      3.173845  
     199A      3.259796   200A      3.328121   201A      3.411151  
     202A      3.528964   203A      3.594213   204A      3.784197  
     205A      3.800894   206A      3.830609   207A      3.965950  
     208A      3.981926   209A      4.084010   210A      5.164890  
     211A      5.236206   212A      5.257172   213A      5.526467  
     214A      5.733678   215A      5.795894   216A      9.929275  
     217A      9.944682   218A      9.977618   219A     23.502717  
     220A     23.936887   221A     23.987615   222A     25.955201  
     223A     25.989721   224A     26.002335   225A     26.006768  
     226A     26.081078   227A     26.108608   228A     26.514635  
     229A     26.549669   230A     26.809622   231A     50.003898  
     232A     50.072958   233A    216.025774   234A    216.045665  
     235A    216.101056  

    Final Occupation by Irrep:
              A 
    DOCC [    45 ]

  Energy converged.

  @DF-RKS Final Energy: -1648.29184818788463

   => Energetics <=

    Nuclear Repulsion Energy =            659.5792995012099027
    One-Electron Energy =               -3583.9877454234465404
    Two-Electron Energy =                1333.1926353971609842
    DFT Exchange-Correlation Energy =     -57.0760376628088437
    Empirical Dispersion Energy =           0.0000000000000000
    VV10 Nonlocal Energy =                  0.0000000000000000
    Total Energy =                      -1648.2918481878846251



Properties will be evaluated at   0.000000,   0.000000,   0.000000 [a0]

Properties computed using the SCF density matrix

  Nuclear Dipole Moment: [e a0]
     X:     4.4560      Y:     9.8645      Z:   -12.0075

  Electronic Dipole Moment: [e a0]
     X:    -3.7768      Y:    -9.1758      Z:    11.3325

  Dipole Moment: [e a0]
     X:     0.6792      Y:     0.6887      Z:    -0.6750     Total:     1.1795

  Dipole Moment: [D]
     X:     1.7263      Y:     1.7504      Z:    -1.7156     Total:     2.9979


*** tstop() called on localhost.localdomain at Tue Mar 19 13:08:30 2019
Module time:
	user time   =     381.29 seconds =       6.35 minutes
	system time =      10.71 seconds =       0.18 minutes
	total time  =         28 seconds =       0.47 minutes
Total time:
	user time   =     381.29 seconds =       6.35 minutes
	system time =      10.71 seconds =       0.18 minutes
	total time  =         28 seconds =       0.47 minutes

*** tstart() called on localhost.localdomain
*** at Tue Mar 19 13:08:30 2019


         ------------------------------------------------------------
                                   SCF GRAD                          
                          Rob Parrish, Justin Turney,                
                       Andy Simmonett, and Alex Sokolov              
         ------------------------------------------------------------

  ==> Geometry <==

    Molecular point group: c1
    Full point group: C1

    Geometry (in Angstrom), charge = 0, multiplicity = 1:

       Center              X                  Y                   Z               Mass       
    ------------   -----------------  -----------------  -----------------  -----------------
         C           -0.039459960281    -0.372254806413    -1.203210807442    12.000000000000
         O           -1.026225741635    -0.485671993583    -1.856051998616    15.994914619560
         CL           1.397224464973     0.364067905921     1.020767488590    34.968852682000
         CL          -1.502096113316     0.298728774337     1.026969231006    34.968852682000
         H            1.150907526400     3.377154113532    -2.418402369498     1.007825032070
         C            1.177124322235     2.341223972904    -2.072199455409    12.000000000000
         H            1.204834583715     1.674028839643    -2.941096082674     1.007825032070
         H            2.080885937992     2.193042972354    -1.481610952650     1.007825032070
         O            0.083702927169     2.047737284391    -1.219056940645    15.994914619560
         H           -0.740347886846     2.164945735722    -1.698482072781     1.007825032070
         C           -0.047495688541    -0.412550356880     0.345510455901    12.000000000000
         CL           0.026943587051    -2.171958897201     0.656842131327    34.968852682000
         H            0.985686061433    -0.368371645767    -1.612088096213     1.007825032070

  Nuclear repulsion =  659.579299501209903

  ==> Basis Set <==

  Basis Set: 6-311++G(D,P)
    Blend: 6-311++G(D,P)
    Number of shells: 117
    Number of basis function: 235
    Number of Cartesian functions: 243
    Spherical Harmonics?: true
    Max angular momentum: 2

  ==> DFJKGrad: Density-Fitted SCF Gradients <==

    Gradient:                    1
    J tasked:                  Yes
    K tasked:                  Yes
    wK tasked:                  No
    OpenMP threads:             16
    Integrals threads:          16
    Memory (MB):               375
    Schwarz Cutoff:          0E+00
    Fitting Condition:       1E-12

   => Auxiliary Basis Set <=

  Basis Set: (6-311++G(D,P) AUX)
    Blend: AUG-CC-PVTZ-JKFIT
    Number of shells: 346
    Number of basis function: 1188
    Number of Cartesian functions: 1470
    Spherical Harmonics?: true
    Max angular momentum: 4

  ==> DFT Potential <==

   => Composite Functional: M06-2X <= 

    Hybrid M06-2X Meta-GGA XC Functional

    Y. Zhao and D. G. Truhlar,  Theor. Chem. Acc., 120, 215, 2008


    Deriv               =              1
    GGA                 =           TRUE
    Meta                =           TRUE

    Exchange Hybrid     =           TRUE
    MP2 Hybrid          =          FALSE

   => Exchange Functionals <=

    1.0000   XC_HYB_MGGA_X_M06_2X

   => Exact (HF) Exchange <=

    0.5400               HF 

   => Correlation Functionals <=

    1.0000   XC_MGGA_C_M06_2X

   => Molecular Quadrature <=

    Radial Scheme       =       TREUTLER
    Pruning Scheme      =           FLAT
    Nuclear Scheme      =       TREUTLER

    BS radius alpha     =              1
    Pruning alpha       =              1
    Radial Points       =             75
    Spherical Points    =            302
    Total Points        =         294162
    Total Blocks        =           2278
    Max Points          =            256
    Max Functions       =            205


  -Total Gradient:
     Atom            X                  Y                   Z
    ------   -----------------  -----------------  -----------------
       1        0.000100788222     0.000809518027     0.000046044994
       2        0.000174800592     0.000158750649     0.000053481890
       3        0.000015879397     0.000677799865     0.002946656585
       4        0.000552604818     0.001459940149     0.001536228661
       5       -0.000112714732    -0.000138300936     0.000005536595
       6       -0.000309016200    -0.001475573112     0.000419808766
       7        0.000119545846    -0.000148052540     0.000056266260
       8       -0.000042434136    -0.000010672346     0.000126801949
       9       -0.002287712575    -0.003278238870    -0.001384347427
      10        0.001236716084    -0.000494570119     0.000625652786
      11        0.000097603211     0.000744281781     0.000053710900
      12        0.000242779946     0.001495912759    -0.004272570824
      13        0.000010442297     0.000040275507     0.000014791683


*** tstop() called on localhost.localdomain at Tue Mar 19 13:08:39 2019
Module time:
	user time   =     113.45 seconds =       1.89 minutes
	system time =       3.89 seconds =       0.06 minutes
	total time  =          9 seconds =       0.15 minutes
Total time:
	user time   =     494.78 seconds =       8.25 minutes
	system time =      14.60 seconds =       0.24 minutes
	total time  =         37 seconds =       0.62 minutes

			-----------------------------------------
			 OPTKING 2.0: for geometry optimizations 
			  - R.A. King,  Bethel University        
			-----------------------------------------

	Internal coordinates to be generated automatically.
	Detected frag 1 with atoms:  1 2 3 4 11 12 13
	Detected frag 2 with atoms:  5 6 7 8 9 10
	Unifying fragments since fragment_mode == SINGLE
	Connecting fragments 1 and 2
	---Fragment 1 Bond Connectivity---
	 1 : 2 9 11 13
	 2 : 1
	 3 : 11
	 4 : 11
	 5 : 6
	 6 : 5 7 8 9
	 7 : 6
	 8 : 6
	 9 : 1 6 10
	 10 : 9
	 11 : 1 3 4 12
	 12 : 11
	 13 : 1

	---Fragment 1 Geometry and Gradient---
	 C          -0.0745685181       -0.7034596358       -2.2737389062
	 O          -1.9392856022       -0.9177870583       -3.5074299658
	 CL          2.6403715850        0.6879886360        1.9289709988
	 CL         -2.8385502794        0.5645155715        1.9406905935
	 H           2.1749000292        6.3818963831       -4.5701181575
	 C           2.2244425934        4.4242721245       -3.9158894634
	 H           2.2768073987        3.1634560455       -5.5578661268
	 H           3.9323045366        4.1442506154       -2.7998389360
	 O           0.1581756089        3.8696626596       -2.3036837582
	 H          -1.3990547492        4.0911545331       -3.2096659592
	 C          -0.0897538438       -0.7796071905        0.6529201377
	 CL          0.0509160006       -4.1044074876        1.2412517407
	 H           1.8626767091       -0.6961215256       -3.0464050039
	             0.0001007882        0.0008095180        0.0000460450
	             0.0001748006        0.0001587506        0.0000534819
	             0.0000158794        0.0006777999        0.0029466566
	             0.0005526048        0.0014599401        0.0015362287
	            -0.0001127147       -0.0001383009        0.0000055366
	            -0.0003090162       -0.0014755731        0.0004198088
	             0.0001195458       -0.0001480525        0.0000562663
	            -0.0000424341       -0.0000106723        0.0001268019
	            -0.0022877126       -0.0032782389       -0.0013843474
	             0.0012367161       -0.0004945701        0.0006256528
	             0.0000976032        0.0007442818        0.0000537109
	             0.0002427799        0.0014959128       -0.0042725708
	             0.0000104423        0.0000402755        0.0000147917

	Previous optimization step data not found.  Starting new optimization.

	---Fragment 1 Intrafragment Coordinates---
	 - Coordinate -           - BOHR/RAD -       - ANG/DEG -
	 R(1,2)           =         2.246130	       1.188601
	 R(1,9)           =         4.579139	       2.423176
	 R(1,11)          =         2.927689	       1.549266
	 R(1,13)          =         2.085662	       1.103685
	 R(3,11)          =         3.351974	       1.773788
	 R(4,11)          =         3.319774	       1.756749
	 R(5,6)           =         2.064646	       1.092564
	 R(6,7)           =         2.070866	       1.095855
	 R(6,8)           =         2.059314	       1.089742
	 R(6,9)           =         2.678854	       1.417588
	 R(9,10)          =         1.815166	       0.960545
	 R(11,12)         =         3.379381	       1.788292
	 B(1,9,6)         =         1.823373	     104.471601
	 B(1,9,10)        =         1.652409	      94.676056
	 B(1,11,3)        =         1.944365	     111.403904
	 B(1,11,4)        =         1.962254	     112.428890
	 B(1,11,12)       =         1.771549	     101.502265
	 B(2,1,9)         =         1.705099	      97.695003
	 B(2,1,11)        =         2.143934	     122.838356
	 B(2,1,13)        =         2.174835	     124.608863
	 B(3,11,4)        =         1.927786	     110.454015
	 B(3,11,12)       =         1.907714	     109.303974
	 B(4,11,12)       =         1.944728	     111.424702
	 B(5,6,7)         =         1.903539	     109.064772
	 B(5,6,8)         =         1.897117	     108.696779
	 B(5,6,9)         =         1.948185	     111.622793
	 B(6,9,10)        =         1.913542	     109.637870
	 B(7,6,8)         =         1.902815	     109.023241
	 B(7,6,9)         =         1.950494	     111.755095
	 B(8,6,9)         =         1.860193	     106.581192
	 B(9,1,11)        =         1.603578	      91.878263
	 B(9,1,13)        =         1.517625	      86.953493
	 B(11,1,13)       =         1.955457	     112.039428
	 D(1,9,6,5)       =         2.826020	     161.919015
	 D(1,9,6,7)       =         0.688951	      39.473983
	 D(1,9,6,8)       =        -1.388205	     -79.538313
	 D(2,1,9,6)       =        -1.884483	    -107.972905
	 D(2,1,9,10)      =         0.064629	       3.702997
	 D(2,1,11,3)      =        -2.771001	    -158.766657
	 D(2,1,11,4)      =        -0.596312	     -34.166167
	 D(2,1,11,12)     =         1.483439	      84.994767
	 D(3,11,1,9)      =        -1.018591	     -58.360979
	 D(3,11,1,13)     =         0.508099	      29.111950
	 D(4,11,1,9)      =         1.156098	      66.239512
	 D(4,11,1,13)     =         2.682788	     153.712440
	 D(5,6,9,10)      =         1.072726	      61.462666
	 D(6,9,1,11)      =         2.243237	     128.528022
	 D(6,9,1,13)      =         0.288872	      16.551151
	 D(7,6,9,10)      =        -1.064343	     -60.982366
	 D(8,6,9,10)      =        -3.141499	    -179.994662
	 D(9,1,11,12)     =        -3.047337	    -174.599555
	 D(10,9,1,11)     =        -2.090836	    -119.796076
	 D(10,9,1,13)     =         2.237984	     128.227053
	 D(12,11,1,13)    =        -1.520647	     -87.126627
	 R(3,6)           =         6.949475	       3.677504

	Current energy   :     -1648.2918481879

	Generating empirical Hessian (Schlegel '84) for each fragment.
	Taking RFO optimization step.
	Going to follow RFO solution 1.
	Using RFO vector 1.
	Norm of target step-size    0.25327
	Projected energy change by RFO approximation:        -0.0033373466

	Back-transformation to cartesian coordinates...
	Successfully converged to displaced geometry.

	--- Internal Coordinate Step in ANG or DEG, aJ/ANG or AJ/DEG ---
	 ---------------------------------------------------------------------------
	   Coordinate                Previous        Force       Change         New 
	   ----------                --------       ------       ------       ------
	    1 R(1,2)          =      1.188601     0.001522     0.000088     1.188689
	    2 R(1,9)          =      2.423176     0.050465     0.069657     2.492833
	    3 R(1,11)         =      1.549266     0.007435     0.000183     1.549449
	    4 R(1,13)         =      1.103685    -0.000130    -0.000025     1.103660
	    5 R(3,11)         =      1.773788    -0.010704    -0.002650     1.771139
	    6 R(4,11)         =      1.756749    -0.005773    -0.001235     1.755514
	    7 R(5,6)          =      1.092564     0.000916     0.000170     1.092733
	    8 R(6,7)          =      1.095855    -0.000470    -0.000088     1.095767
	    9 R(6,8)          =      1.089742    -0.000245    -0.000045     1.089697
	   10 R(6,9)          =      1.417588     0.012820     0.001263     1.418852
	   11 R(9,10)         =      0.960545     0.011921     0.001378     0.961923
	   12 R(11,12)        =      1.788292     0.018238     0.004298     1.792590
	   13 B(1,9,6)        =    104.471601     0.000370     0.977327   105.448928
	   14 B(1,9,10)       =     94.676056    -0.000057     0.184770    94.860826
	   15 B(1,11,3)       =    111.403904    -0.000305    -1.456454   109.947450
	   16 B(1,11,4)       =    112.428890    -0.000278    -0.884021   111.544869
	   17 B(1,11,12)      =    101.502265     0.000790     2.613691   104.115957
	   18 B(2,1,9)        =     97.695003     0.000023     0.245931    97.940935
	   19 B(2,1,11)       =    122.838356    -0.000051    -0.094604   122.743752
	   20 B(2,1,13)       =    124.608863     0.000002     0.020771   124.629634
	   21 B(3,11,4)       =    110.454015     0.000289     0.572024   111.026039
	   22 B(3,11,12)      =    109.303974    -0.000212    -0.174017   109.129957
	   23 B(4,11,12)      =    111.424702    -0.000272    -0.578653   110.846049
	   24 B(5,6,7)        =    109.064772    -0.000004    -0.057453   109.007320
	   25 B(5,6,8)        =    108.696779    -0.000007    -0.024237   108.672542
	   26 B(5,6,9)        =    111.622793     0.000004    -0.003739   111.619055
	   27 B(6,9,10)       =    109.637870    -0.000084    -0.184724   109.453146
	   28 B(7,6,8)        =    109.023241     0.000001     0.015419   109.038660
	   29 B(7,6,9)        =    111.755095    -0.000005     0.011400   111.766495
	   30 B(8,6,9)        =    106.581192     0.000010     0.060887   106.642078
	   31 B(9,1,11)       =     91.878263    -0.000021    -0.769872    91.108391
	   32 B(9,1,13)       =     86.953493     0.000003    -0.149442    86.804051
	   33 B(11,1,13)      =    112.039428     0.000049     0.160950   112.200378
	   34 D(1,9,6,5)      =    161.919015     0.000008     1.372087   163.291102
	   35 D(1,9,6,7)      =     39.473983     0.000009     1.441064    40.915047
	   36 D(1,9,6,8)      =    -79.538313     0.000008     1.378025   -78.160288
	   37 D(2,1,9,6)      =   -107.972905     0.000009     3.152774  -104.820132
	   38 D(2,1,9,10)     =      3.702997     0.000001     3.209128     6.912125
	   39 D(2,1,11,3)     =   -158.766657     0.000009     3.533714  -155.232944
	   40 D(2,1,11,4)     =    -34.166167    -0.000006     2.551312   -31.614855
	   41 D(2,1,11,12)    =     84.994767    -0.000003     2.980345    87.975112
	   42 D(3,11,1,9)     =    -58.360979     0.000010     3.307073   -55.053906
	   43 D(3,11,1,13)    =     29.111950     0.000009     2.834469    31.946418
	   44 D(4,11,1,9)     =     66.239512    -0.000005     2.324671    68.564183
	   45 D(4,11,1,13)    =    153.712440    -0.000006     1.852067   155.564507
	   46 D(5,6,9,10)     =     61.462666    -0.000006     0.826267    62.288933
	   47 D(6,9,1,11)     =    128.528022     0.000021     3.358863   131.886885
	   48 D(6,9,1,13)     =     16.551151     0.000010     3.161402    19.712553
	   49 D(7,6,9,10)     =    -60.982366    -0.000005     0.895244   -60.087122
	   50 D(8,6,9,10)     =   -179.994662    -0.000006     0.832205  -179.162456
	   51 D(9,1,11,12)    =   -174.599555    -0.000001     2.753705  -171.845850
	   52 D(10,9,1,11)    =   -119.796076     0.000013     3.415217  -116.380858
	   53 D(10,9,1,13)    =    128.227053     0.000002     3.217756   131.444810
	   54 D(12,11,1,13)   =    -87.126627    -0.000002     2.281101   -84.845526
	   55 R(3,6)          =      3.677504    -0.009339    -0.006839     3.670665
	 ---------------------------------------------------------------------------
	Successfully symmetrized geometry.

  ==> Convergence Check <==

  Measures of convergence in internal coordinates in au.
  Criteria marked as inactive (o), active & met (*), and active & unmet ( ).
  --------------------------------------------------------------------------------------------- ~
   Step     Total Energy     Delta E     MAX Force     RMS Force      MAX Disp      RMS Disp    ~
  --------------------------------------------------------------------------------------------- ~
    Convergence Criteria    1.00e-06 *    3.00e-04 *             o    1.20e-03 *             o  ~
  --------------------------------------------------------------------------------------------- ~
      1   -1648.29184819   -1.65e+03      1.04e-02      2.15e-03 o    1.32e-01      3.41e-02 o  ~
  ---------------------------------------------------------------------------------------------

	Writing optimization data to binary file.
	Structure for next step:
	Cartesian Geometry (in Angstrom)
	    C    -0.0101958308  -0.4302630987  -1.1787664326
	    O    -0.9843275655  -0.5621906976  -1.8470805581
	   CL     1.3402142461   0.4605555492   1.0105329157
	   CL    -1.5576641585   0.2346434510   0.9761470153
	    H     1.1171422452   3.4157363326  -2.4420754438
	    C     1.1606792458   2.3733132396  -2.1172306230
	    H     1.1531001881   1.7238725419  -2.9997696555
	    H     2.0893986626   2.2172299219  -1.5689990182
	    O     0.1038806907   2.0595476486  -1.2239957248
	    H    -0.7392529779   2.1716242880  -1.6732845737
	    C    -0.0501942129  -0.4303016659   0.3701661911
	   CL     0.1068567020  -2.1605989504   0.8115103737
	    H     1.0220467854  -0.4230466613  -1.5692639353
			--------------------------
			 OPTKING Finished Execution 
			--------------------------

    Structure for next step:
    Molecular point group: c1
    Full point group: C1

    Geometry (in Angstrom), charge = 0, multiplicity = 1:

    C           -0.009815031411    -0.430467610506    -1.197224274089
    O           -0.983946766045    -0.562395209335    -1.865538399563
    CL           1.340595045482     0.460351037472     0.992075074233
    CL          -1.557283359094     0.234438939197     0.957689173880
    H            1.117523044653     3.415531820844    -2.460533285238
    C            1.161060045254     2.373108727839    -2.135688464438
    H            1.153480987562     1.723668030188    -3.018227496927
    H            2.089779461994     2.217025410166    -1.587456859622
    O            0.104261490160     2.059343136865    -1.242453566303
    H           -0.738872178476     2.171419776200    -1.691742415127
    C           -0.049813413496    -0.430506177620     0.351708349603
    CL           0.107237501471    -2.160803462208     0.793052532221
    H            1.022427584829    -0.423251173031    -1.587721776760

gradient() will perform analytic gradient computation.

*** tstart() called on localhost.localdomain
*** at Tue Mar 19 13:08:40 2019

   => Loading Basis Set <=

    Name: 6-311++G(D,P)
    Role: ORBITAL
    Keyword: BASIS
    atoms 1, 6, 11       entry C          line   119 file /root/psi4conda/share/psi4/basis/6-311ppg_d_p_.gbs 
    atoms 2, 9           entry O          line   161 file /root/psi4conda/share/psi4/basis/6-311ppg_d_p_.gbs 
    atoms 3-4, 12        entry CL         line   458 file /root/psi4conda/share/psi4/basis/6-311ppg_d_p_.gbs 
    atoms 5, 7-8, 10, 13 entry H          line    42 file /root/psi4conda/share/psi4/basis/6-311ppg_d_p_.gbs 


         ---------------------------------------------------------
                                   SCF
            by Justin Turney, Rob Parrish, Andy Simmonett
                             and Daniel Smith
                              RKS Reference
                       16 Threads,    500 MiB Core
         ---------------------------------------------------------

  ==> Geometry <==

    Molecular point group: c1
    Full point group: C1

    Geometry (in Angstrom), charge = 0, multiplicity = 1:

       Center              X                  Y                   Z               Mass       
    ------------   -----------------  -----------------  -----------------  -----------------
         C           -0.009815031411    -0.430467610506    -1.197224274089    12.000000000000
         O           -0.983946766045    -0.562395209335    -1.865538399563    15.994914619560
         CL           1.340595045482     0.460351037472     0.992075074233    34.968852682000
         CL          -1.557283359094     0.234438939197     0.957689173880    34.968852682000
         H            1.117523044653     3.415531820844    -2.460533285238     1.007825032070
         C            1.161060045254     2.373108727839    -2.135688464438    12.000000000000
         H            1.153480987562     1.723668030188    -3.018227496927     1.007825032070
         H            2.089779461994     2.217025410166    -1.587456859622     1.007825032070
         O            0.104261490160     2.059343136865    -1.242453566303    15.994914619560
         H           -0.738872178476     2.171419776200    -1.691742415127     1.007825032070
         C           -0.049813413496    -0.430506177620     0.351708349603    12.000000000000
         CL           0.107237501471    -2.160803462208     0.793052532221    34.968852682000
         H            1.022427584829    -0.423251173031    -1.587721776760     1.007825032070

  Running in c1 symmetry.

  Rotational constants: A =      0.04964  B =      0.02790  C =      0.02599 [cm^-1]
  Rotational constants: A =   1488.05570  B =    836.50733  C =    779.18031 [MHz]
  Nuclear repulsion =  657.587594965930634

  Charge       = 0
  Multiplicity = 1
  Electrons    = 90
  Nalpha       = 45
  Nbeta        = 45

  ==> Algorithm <==

  SCF Algorithm Type is DF.
  DIIS enabled.
  MOM disabled.
  Fractional occupation disabled.
  Guess Type is READ.
  Energy threshold   = 1.00e-08
  Density threshold  = 1.00e-08
  Integral threshold = 0.00e+00

  ==> Primary Basis <==

  Basis Set: 6-311++G(D,P)
    Blend: 6-311++G(D,P)
    Number of shells: 117
    Number of basis function: 235
    Number of Cartesian functions: 243
    Spherical Harmonics?: true
    Max angular momentum: 2

  ==> DFT Potential <==

   => Composite Functional: M06-2X <= 

    Hybrid M06-2X Meta-GGA XC Functional

    Y. Zhao and D. G. Truhlar,  Theor. Chem. Acc., 120, 215, 2008


    Deriv               =              1
    GGA                 =           TRUE
    Meta                =           TRUE

    Exchange Hybrid     =           TRUE
    MP2 Hybrid          =          FALSE

   => Exchange Functionals <=

    1.0000   XC_HYB_MGGA_X_M06_2X

   => Exact (HF) Exchange <=

    0.5400               HF 

   => Correlation Functionals <=

    1.0000   XC_MGGA_C_M06_2X

   => Molecular Quadrature <=

    Radial Scheme       =       TREUTLER
    Pruning Scheme      =           FLAT
    Nuclear Scheme      =       TREUTLER

    BS radius alpha     =              1
    Pruning alpha       =              1
    Radial Points       =             75
    Spherical Points    =            302
    Total Points        =         294163
    Total Blocks        =           2263
    Max Points          =            256
    Max Functions       =            208

   => Loading Basis Set <=

    Name: (6-311++G(D,P) AUX)
    Role: JKFIT
    Keyword: DF_BASIS_SCF
    atoms 1, 6, 11       entry C          line   162 file /root/psi4conda/share/psi4/basis/aug-cc-pvtz-jkfit.gbs 
    atoms 2, 9           entry O          line   286 file /root/psi4conda/share/psi4/basis/aug-cc-pvtz-jkfit.gbs 
    atoms 3-4, 12        entry CL         line   816 file /root/psi4conda/share/psi4/basis/aug-cc-pvtz-jkfit.gbs 
    atoms 5, 7-8, 10, 13 entry H          line    70 file /root/psi4conda/share/psi4/basis/aug-cc-pvtz-jkfit.gbs 

  Reading orbitals from file 180, no projection.

  ==> Pre-Iterations <==

   -------------------------------------------------------
    Irrep   Nso     Nmo     Nalpha   Nbeta   Ndocc  Nsocc
   -------------------------------------------------------
     A        235     235       0       0       0       0
   -------------------------------------------------------
    Total     235     235      45      45      45       0
   -------------------------------------------------------

  ==> Integral Setup <==

  ==> DiskDFJK: Density-Fitted J/K Matrices <==

    J tasked:                  Yes
    K tasked:                  Yes
    wK tasked:                  No
    OpenMP threads:             16
    Integrals threads:          16
    Memory (MB):               375
    Algorithm:                Core
    Integral Cache:           NONE
    Schwarz Cutoff:          1E-12
    Fitting Condition:       1E-12

   => Auxiliary Basis Set <=

  Basis Set: (6-311++G(D,P) AUX)
    Blend: AUG-CC-PVTZ-JKFIT
    Number of shells: 346
    Number of basis function: 1188
    Number of Cartesian functions: 1470
    Spherical Harmonics?: true
    Max angular momentum: 4

  Minimum eigenvalue in the overlap matrix is 2.3431879761E-05.
  Using Symmetric Orthogonalization.

  SCF Guess: Orbitals guess was supplied from a previous computation.

  ==> Iterations <==

                           Total Energy        Delta E     RMS |[F,P]|

   @DF-RKS iter   0: -1648.25894078160195   -1.64826e+03   2.77868e-03 
   @DF-RKS iter   1: -1648.29214823863754   -3.32075e-02   4.95575e-04 
   @DF-RKS iter   2: -1648.29242772196767   -2.79483e-04   5.31194e-04 DIIS
   @DF-RKS iter   3: -1648.29289665688020   -4.68935e-04   1.42763e-04 DIIS
   @DF-RKS iter   4: -1648.29293118056239   -3.45237e-05   6.04497e-05 DIIS
   @DF-RKS iter   5: -1648.29293862769805   -7.44714e-06   2.39822e-05 DIIS
   @DF-RKS iter   6: -1648.29293966864520   -1.04095e-06   6.25832e-06 DIIS
   @DF-RKS iter   7: -1648.29293977372186   -1.05077e-07   1.83647e-06 DIIS
   @DF-RKS iter   8: -1648.29293978558576   -1.18639e-08   5.02483e-07 DIIS
   @DF-RKS iter   9: -1648.29293978666783   -1.08207e-09   2.38246e-07 DIIS
   @DF-RKS iter  10: -1648.29293978680425   -1.36424e-10   4.18856e-08 DIIS
   @DF-RKS iter  11: -1648.29293978682631   -2.20552e-11   1.68995e-08 DIIS
   @DF-RKS iter  12: -1648.29293978683359   -7.27596e-12   5.89009e-09 DIIS

  ==> Post-Iterations <==

    Orbital Energies [Eh]
    ---------------------

    Doubly Occupied:                                                      

       1A   -102.702982     2A   -102.699877     3A   -102.698909  
       4A    -19.659276     5A    -19.646422     6A    -10.736734  
       7A    -10.674760     8A    -10.597402     9A     -9.845397  
      10A     -9.842688    11A     -9.841563    12A     -7.570730  
      13A     -7.568074    14A     -7.567063    15A     -7.563386  
      16A     -7.563175    17A     -7.560707    18A     -7.560450  
      19A     -7.559457    20A     -7.559356    21A     -1.221182  
      22A     -1.168470    23A     -1.059794    24A     -0.946282  
      25A     -0.944918    26A     -0.799697    27A     -0.798062  
      28A     -0.677219    29A     -0.610226    30A     -0.603179  
      31A     -0.572827    32A     -0.569154    33A     -0.539960  
      34A     -0.529855    35A     -0.520801    36A     -0.489297  
      37A     -0.436667    38A     -0.426102    39A     -0.422653  
      40A     -0.419849    41A     -0.392390    42A     -0.390167  
      43A     -0.376212    44A     -0.375829    45A     -0.358951  

    Virtual:                                                              

      46A     -0.023691    47A     -0.009310    48A      0.001057  
      49A      0.008544    50A      0.015962    51A      0.027165  
      52A      0.037355    53A      0.043194    54A      0.049212  
      55A      0.055928    56A      0.059753    57A      0.065002  
      58A      0.074200    59A      0.086031    60A      0.094551  
      61A      0.099493    62A      0.105514    63A      0.113290  
      64A      0.116963    65A      0.121503    66A      0.129820  
      67A      0.133752    68A      0.137567    69A      0.140700  
      70A      0.142846    71A      0.147584    72A      0.152129  
      73A      0.162924    74A      0.173819    75A      0.181196  
      76A      0.190857    77A      0.210898    78A      0.214037  
      79A      0.229571    80A      0.235341    81A      0.247431  
      82A      0.265412    83A      0.265806    84A      0.286072  
      85A      0.301304    86A      0.306464    87A      0.310086  
      88A      0.321700    89A      0.334747    90A      0.337724  
      91A      0.344918    92A      0.366461    93A      0.408532  
      94A      0.417818    95A      0.439834    96A      0.445382  
      97A      0.446588    98A      0.463047    99A      0.479603  
     100A      0.489812   101A      0.493112   102A      0.495969  
     103A      0.509115   104A      0.517099   105A      0.528001  
     106A      0.549475   107A      0.565695   108A      0.572212  
     109A      0.580776   110A      0.597087   111A      0.624077  
     112A      0.644325   113A      0.656963   114A      0.684128  
     115A      0.694972   116A      0.709329   117A      0.753047  
     118A      0.836247   119A      0.884552   120A      0.894286  
     121A      0.912787   122A      0.913905   123A      0.923558  
     124A      0.928333   125A      0.936446   126A      0.950766  
     127A      0.967193   128A      0.971456   129A      0.978737  
     130A      1.014748   131A      1.022325   132A      1.033720  
     133A      1.061661   134A      1.077141   135A      1.085324  
     136A      1.126243   137A      1.153715   138A      1.160061  
     139A      1.203097   140A      1.214911   141A      1.230931  
     142A      1.247122   143A      1.271575   144A      1.288951  
     145A      1.330009   146A      1.334386   147A      1.369217  
     148A      1.396339   149A      1.468340   150A      1.485482  
     151A      1.520436   152A      1.539867   153A      1.571509  
     154A      1.587466   155A      1.610671   156A      1.620027  
     157A      1.671647   158A      1.689356   159A      1.727551  
     160A      1.731734   161A      1.755654   162A      1.806672  
     163A      1.835462   164A      1.841301   165A      1.893770  
     166A      1.983259   167A      2.032365   168A      2.040567  
     169A      2.090490   170A      2.155839   171A      2.233209  
     172A      2.289562   173A      2.294369   174A      2.310904  
     175A      2.345272   176A      2.347774   177A      2.354165  
     178A      2.379979   179A      2.451273   180A      2.472684  
     181A      2.494780   182A      2.509803   183A      2.525182  
     184A      2.543342   185A      2.545977   186A      2.585579  
     187A      2.608887   188A      2.678853   189A      2.751647  
     190A      2.834591   191A      2.907537   192A      2.927216  
     193A      2.936068   194A      3.044465   195A      3.065929  
     196A      3.111379   197A      3.137207   198A      3.169121  
     199A      3.258592   200A      3.328492   201A      3.406966  
     202A      3.528275   203A      3.592490   204A      3.784773  
     205A      3.796672   206A      3.831598   207A      3.962234  
     208A      3.976079   209A      4.083554   210A      5.165670  
     211A      5.224832   212A      5.250898   213A      5.522005  
     214A      5.730116   215A      5.792722   216A      9.926735  
     217A      9.945954   218A      9.979226   219A     23.500737  
     220A     23.933355   221A     23.989390   222A     25.960337  
     223A     25.985184   224A     25.998419   225A     26.010078  
     226A     26.081381   227A     26.119522   228A     26.510944  
     229A     26.541442   230A     26.811747   231A     50.004025  
     232A     50.066701   233A    216.023249   234A    216.046518  
     235A    216.103155  

    Final Occupation by Irrep:
              A 
    DOCC [    45 ]

  Energy converged.

  @DF-RKS Final Energy: -1648.29293978683359

   => Energetics <=

    Nuclear Repulsion Energy =            657.5875949659306343
    One-Electron Energy =               -3580.0405633737277640
    Two-Electron Energy =                1331.2331977879393889
    DFT Exchange-Correlation Energy =     -57.0731691669759016
    Empirical Dispersion Energy =           0.0000000000000000
    VV10 Nonlocal Energy =                  0.0000000000000000
    Total Energy =                      -1648.2929397868335855



Properties will be evaluated at   0.000000,   0.000000,   0.000000 [a0]

Properties computed using the SCF density matrix

  Nuclear Dipole Moment: [e a0]
     X:     4.4499      Y:     9.8843      Z:   -12.2246

  Electronic Dipole Moment: [e a0]
     X:    -3.8113      Y:    -9.2156      Z:    11.5387

  Dipole Moment: [e a0]
     X:     0.6386      Y:     0.6687      Z:    -0.6858     Total:     1.1512

  Dipole Moment: [D]
     X:     1.6231      Y:     1.6996      Z:    -1.7432     Total:     2.9261


*** tstop() called on localhost.localdomain at Tue Mar 19 13:09:03 2019
Module time:
	user time   =     312.31 seconds =       5.21 minutes
	system time =       7.36 seconds =       0.12 minutes
	total time  =         23 seconds =       0.38 minutes
Total time:
	user time   =     810.20 seconds =      13.50 minutes
	system time =      22.08 seconds =       0.37 minutes
	total time  =         61 seconds =       1.02 minutes

*** tstart() called on localhost.localdomain
*** at Tue Mar 19 13:09:03 2019


         ------------------------------------------------------------
                                   SCF GRAD                          
                          Rob Parrish, Justin Turney,                
                       Andy Simmonett, and Alex Sokolov              
         ------------------------------------------------------------

  ==> Geometry <==

    Molecular point group: c1
    Full point group: C1

    Geometry (in Angstrom), charge = 0, multiplicity = 1:

       Center              X                  Y                   Z               Mass       
    ------------   -----------------  -----------------  -----------------  -----------------
         C           -0.009815031411    -0.430467610506    -1.197224274089    12.000000000000
         O           -0.983946766045    -0.562395209335    -1.865538399563    15.994914619560
         CL           1.340595045482     0.460351037472     0.992075074233    34.968852682000
         CL          -1.557283359094     0.234438939197     0.957689173880    34.968852682000
         H            1.117523044653     3.415531820844    -2.460533285238     1.007825032070
         C            1.161060045254     2.373108727839    -2.135688464438    12.000000000000
         H            1.153480987562     1.723668030188    -3.018227496927     1.007825032070
         H            2.089779461994     2.217025410166    -1.587456859622     1.007825032070
         O            0.104261490160     2.059343136865    -1.242453566303    15.994914619560
         H           -0.738872178476     2.171419776200    -1.691742415127     1.007825032070
         C           -0.049813413496    -0.430506177620     0.351708349603    12.000000000000
         CL           0.107237501471    -2.160803462208     0.793052532221    34.968852682000
         H            1.022427584829    -0.423251173031    -1.587721776760     1.007825032070

  Nuclear repulsion =  657.587594965930634

  ==> Basis Set <==

  Basis Set: 6-311++G(D,P)
    Blend: 6-311++G(D,P)
    Number of shells: 117
    Number of basis function: 235
    Number of Cartesian functions: 243
    Spherical Harmonics?: true
    Max angular momentum: 2

  ==> DFJKGrad: Density-Fitted SCF Gradients <==

    Gradient:                    1
    J tasked:                  Yes
    K tasked:                  Yes
    wK tasked:                  No
    OpenMP threads:             16
    Integrals threads:          16
    Memory (MB):               375
    Schwarz Cutoff:          0E+00
    Fitting Condition:       1E-12

   => Auxiliary Basis Set <=

  Basis Set: (6-311++G(D,P) AUX)
    Blend: AUG-CC-PVTZ-JKFIT
    Number of shells: 346
    Number of basis function: 1188
    Number of Cartesian functions: 1470
    Spherical Harmonics?: true
    Max angular momentum: 4

  ==> DFT Potential <==

   => Composite Functional: M06-2X <= 

    Hybrid M06-2X Meta-GGA XC Functional

    Y. Zhao and D. G. Truhlar,  Theor. Chem. Acc., 120, 215, 2008


    Deriv               =              1
    GGA                 =           TRUE
    Meta                =           TRUE

    Exchange Hybrid     =           TRUE
    MP2 Hybrid          =          FALSE

   => Exchange Functionals <=

    1.0000   XC_HYB_MGGA_X_M06_2X

   => Exact (HF) Exchange <=

    0.5400               HF 

   => Correlation Functionals <=

    1.0000   XC_MGGA_C_M06_2X

   => Molecular Quadrature <=

    Radial Scheme       =       TREUTLER
    Pruning Scheme      =           FLAT
    Nuclear Scheme      =       TREUTLER

    BS radius alpha     =              1
    Pruning alpha       =              1
    Radial Points       =             75
    Spherical Points    =            302
    Total Points        =         294163
    Total Blocks        =           2263
    Max Points          =            256
    Max Functions       =            208


  -Total Gradient:
     Atom            X                  Y                   Z
    ------   -----------------  -----------------  -----------------
       1        0.001105061816     0.004716818460    -0.000063704191
       2       -0.000991736211    -0.000638377570     0.000092428985
       3       -0.001141927557     0.000891415730    -0.000338520717
       4        0.000838345080     0.000423505808     0.000261429091
       5       -0.000097124498    -0.000150898606    -0.000114936756
       6        0.000537613181    -0.000657001926     0.000075467074
       7        0.000066753664     0.000113589845    -0.000214326876
       8       -0.000026289435     0.000035758980    -0.000055827718
       9        0.000101183749    -0.001996715910     0.000944853265
      10       -0.000160365193    -0.000462290703    -0.000088515328
      11       -0.000912594040    -0.000075096865    -0.000600551654
      12        0.000461421209    -0.001447641885     0.000045870391
      13        0.000123264234    -0.000570670504     0.000039237317


*** tstop() called on localhost.localdomain at Tue Mar 19 13:09:12 2019
Module time:
	user time   =     108.07 seconds =       1.80 minutes
	system time =       4.37 seconds =       0.07 minutes
	total time  =          9 seconds =       0.15 minutes
Total time:
	user time   =     918.30 seconds =      15.31 minutes
	system time =      26.45 seconds =       0.44 minutes
	total time  =         70 seconds =       1.17 minutes

			-----------------------------------------
			 OPTKING 2.0: for geometry optimizations 
			  - R.A. King,  Bethel University        
			-----------------------------------------

	Previous internal coordinate definitions found.
	---Fragment 1 Geometry and Gradient---
	 C          -0.0185477214       -0.8134658929       -2.2624259977
	 O          -1.8593899172       -1.0627729241       -3.5253566656
	 CL          2.5333574911        0.8699373858        1.8747501936
	 CL         -2.9428390600        0.4430253900        1.8097702591
	 H           2.1118125016        6.4544197396       -4.6497340499
	 C           2.1940855094        4.4845255792       -4.0358663030
	 H           2.1797631660        3.2572605211       -5.7036233759
	 H           3.9491108613        4.1895708549       -2.9998587125
	 O           0.1970256626        3.8915945423       -2.3478969731
	 H          -1.3962660645        4.1033886966       -3.1969298520
	 C          -0.0941337093       -0.8135387742        0.6646324594
	 CL          0.2026495090       -4.0833267706        1.4986520949
	 H           1.9321081260       -0.7998288025       -3.0003593333
	             0.0011050618        0.0047168185       -0.0000637042
	            -0.0009917362       -0.0006383776        0.0000924290
	            -0.0011419276        0.0008914157       -0.0003385207
	             0.0008383451        0.0004235058        0.0002614291
	            -0.0000971245       -0.0001508986       -0.0001149368
	             0.0005376132       -0.0006570019        0.0000754671
	             0.0000667537        0.0001135898       -0.0002143269
	            -0.0000262894        0.0000357590       -0.0000558277
	             0.0001011837       -0.0019967159        0.0009448533
	            -0.0001603652       -0.0004622907       -0.0000885153
	            -0.0009125940       -0.0000750969       -0.0006005517
	             0.0004614212       -0.0014476419        0.0000458704
	             0.0001232642       -0.0005706705        0.0000392373

	---Fragment 1 Intrafragment Coordinates---
	 - Coordinate -           - BOHR/RAD -       - ANG/DEG -
	 R(1,2)           =         2.246296	       1.188689
	 R(1,9)           =         4.710772	       2.492833
	 R(1,11)          =         2.928034	       1.549449
	 R(1,13)          =         2.085615	       1.103660
	 R(3,11)          =         3.346967	       1.771139
	 R(4,11)          =         3.317441	       1.755514
	 R(5,6)           =         2.064966	       1.092733
	 R(6,7)           =         2.070700	       1.095767
	 R(6,8)           =         2.059229	       1.089697
	 R(6,9)           =         2.681241	       1.418852
	 R(9,10)          =         1.817771	       0.961923
	 R(11,12)         =         3.387504	       1.792590
	 B(1,9,6)         =         1.840431	     105.448928
	 B(1,9,10)        =         1.655634	      94.860826
	 B(1,11,3)        =         1.918945	     109.947450
	 B(1,11,4)        =         1.946825	     111.544869
	 B(1,11,12)       =         1.817166	     104.115957
	 B(2,1,9)         =         1.709392	      97.940935
	 B(2,1,11)        =         2.142283	     122.743752
	 B(2,1,13)        =         2.175197	     124.629634
	 B(3,11,4)        =         1.937770	     111.026039
	 B(3,11,12)       =         1.904677	     109.129957
	 B(4,11,12)       =         1.934629	     110.846049
	 B(5,6,7)         =         1.902537	     109.007320
	 B(5,6,8)         =         1.896694	     108.672542
	 B(5,6,9)         =         1.948120	     111.619055
	 B(6,9,10)        =         1.910318	     109.453146
	 B(7,6,8)         =         1.903084	     109.038660
	 B(7,6,9)         =         1.950693	     111.766495
	 B(8,6,9)         =         1.861255	     106.642078
	 B(9,1,11)        =         1.590141	      91.108391
	 B(9,1,13)        =         1.515016	      86.804051
	 B(11,1,13)       =         1.958266	     112.200378
	 D(1,9,6,5)       =         2.849967	     163.291102
	 D(1,9,6,7)       =         0.714102	      40.915047
	 D(1,9,6,8)       =        -1.364154	     -78.160288
	 D(2,1,9,6)       =        -1.829456	    -104.820132
	 D(2,1,9,10)      =         0.120639	       6.912125
	 D(2,1,11,3)      =        -2.709326	    -155.232944
	 D(2,1,11,4)      =        -0.551783	     -31.614855
	 D(2,1,11,12)     =         1.535455	      87.975112
	 D(3,11,1,9)      =        -0.960872	     -55.053906
	 D(3,11,1,13)     =         0.557570	      31.946418
	 D(4,11,1,9)      =         1.196671	      68.564183
	 D(4,11,1,13)     =         2.715113	     155.564507
	 D(5,6,9,10)      =         1.087147	      62.288933
	 D(6,9,1,11)      =         2.301860	     131.886885
	 D(6,9,1,13)      =         0.344049	      19.712553
	 D(7,6,9,10)      =        -1.048718	     -60.087122
	 D(8,6,9,10)      =        -3.126975	    -179.162456
	 D(9,1,11,12)     =        -2.999276	    -171.845850
	 D(10,9,1,11)     =        -2.031229	    -116.380858
	 D(10,9,1,13)     =         2.294145	     131.444810
	 D(12,11,1,13)    =        -1.480834	     -84.845526
	 R(3,6)           =         6.936551	       3.670665

	Current energy   :     -1648.2929397868

	Energy change for the previous step:
		Projected    :        -0.0033373466
		Actual       :        -0.0010915989

	Performing BFGS update.
	Previous computed or guess Hessian on step 1.
	Steps to be used in Hessian update: 1
	Taking RFO optimization step.
	Going to follow RFO solution 1.
	Using RFO vector 1.
	Norm of target step-size    0.32373
	Projected energy change by RFO approximation:        -0.0003240142

	Back-transformation to cartesian coordinates...
	Successfully converged to displaced geometry.

	--- Internal Coordinate Step in ANG or DEG, aJ/ANG or AJ/DEG ---
	 ---------------------------------------------------------------------------
	   Coordinate                Previous        Force       Change         New 
	   ----------                --------       ------       ------       ------
	    1 R(1,2)          =      1.188689    -0.006762    -0.000431     1.188257
	    2 R(1,9)          =      2.492833     0.024127     0.075112     2.567945
	    3 R(1,11)         =      1.549449     0.002440     0.000276     1.549725
	    4 R(1,13)         =      1.103660    -0.000973    -0.000238     1.103422
	    5 R(3,11)         =      1.771139     0.004477    -0.000103     1.771035
	    6 R(4,11)         =      1.755514     0.004019     0.000457     1.755971
	    7 R(5,6)          =      1.092733     0.000926     0.000288     1.093021
	    8 R(6,7)          =      1.095767    -0.000793    -0.000221     1.095546
	    9 R(6,8)          =      1.089697     0.000396     0.000067     1.089764
	   10 R(6,9)          =      1.418852    -0.005132    -0.000556     1.418296
	   11 R(9,10)         =      0.961923    -0.001042     0.000509     0.962432
	   12 R(11,12)        =      1.792590    -0.012116    -0.001428     1.791162
	   13 B(1,9,6)        =    105.448928     0.000075     0.748022   106.196950
	   14 B(1,9,10)       =     94.860826     0.000012     0.515055    95.375882
	   15 B(1,11,3)       =    109.947450    -0.000019    -1.067099   108.880350
	   16 B(1,11,4)       =    111.544869    -0.000069    -0.453514   111.091355
	   17 B(1,11,12)      =    104.115957     0.000053     1.021409   105.137366
	   18 B(2,1,9)        =     97.940935    -0.000033    -0.389585    97.551349
	   19 B(2,1,11)       =    122.743752     0.000051     0.262137   123.005888
	   20 B(2,1,13)       =    124.629634    -0.000024    -0.048855   124.580779
	   21 B(3,11,4)       =    111.026039     0.000104     0.996908   112.022946
	   22 B(3,11,12)      =    109.129957    -0.000039    -0.039174   109.090783
	   23 B(4,11,12)      =    110.846049    -0.000036    -0.477994   110.368055
	   24 B(5,6,7)        =    109.007320     0.000015     0.098796   109.106116
	   25 B(5,6,8)        =    108.672542    -0.000003    -0.038160   108.634382
	   26 B(5,6,9)        =    111.619055     0.000008     0.069701   111.688756
	   27 B(6,9,10)       =    109.453146    -0.000013     0.062884   109.516030
	   28 B(7,6,8)        =    109.038660     0.000004    -0.034080   109.004580
	   29 B(7,6,9)        =    111.766495    -0.000020    -0.091585   111.674910
	   30 B(8,6,9)        =    106.642078    -0.000004    -0.009677   106.632402
	   31 B(9,1,11)       =     91.108391    -0.000049    -1.074939    90.033453
	   32 B(9,1,13)       =     86.804051     0.000028    -0.210657    86.593394
	   33 B(11,1,13)      =    112.200378    -0.000020    -0.024773   112.175604
	   34 D(1,9,6,5)      =    163.291102     0.000006     1.284267   164.575369
	   35 D(1,9,6,7)      =     40.915047     0.000003     1.171912    42.086958
	   36 D(1,9,6,8)      =    -78.160288     0.000006     1.270864   -76.889424
	   37 D(2,1,9,6)      =   -104.820132     0.000003    -1.986309  -106.806441
	   38 D(2,1,9,10)     =      6.912125     0.000004    -1.586092     5.326034
	   39 D(2,1,11,3)     =   -155.232944    -0.000003    -4.141129  -159.374073
	   40 D(2,1,11,4)     =    -31.614855     0.000013    -3.934052   -35.548907
	   41 D(2,1,11,12)    =     87.975112     0.000003    -4.131681    83.843431
	   42 D(3,11,1,9)     =    -55.053906    -0.000018    -5.282498   -60.336404
	   43 D(3,11,1,13)    =     31.946418    -0.000016    -5.948236    25.998182
	   44 D(4,11,1,9)     =     68.564183    -0.000002    -5.075421    63.488762
	   45 D(4,11,1,13)    =    155.564507     0.000000    -5.741159   149.823349
	   46 D(5,6,9,10)     =     62.288933    -0.000003     0.371436    62.660370
	   47 D(6,9,1,11)     =    131.886885    -0.000006    -2.030719   129.856166
	   48 D(6,9,1,13)     =     19.712553    -0.000002    -2.071190    17.641363
	   49 D(7,6,9,10)     =    -60.087122    -0.000006     0.259081   -59.828041
	   50 D(8,6,9,10)     =   -179.162456    -0.000003     0.358034  -178.804423
	   51 D(9,1,11,12)    =   -171.845850    -0.000012    -5.273050  -177.118900
	   52 D(10,9,1,11)    =   -116.380858    -0.000004    -1.630502  -118.011360
	   53 D(10,9,1,13)    =    131.444810    -0.000001    -1.670972   129.773838
	   54 D(12,11,1,13)   =    -84.845526    -0.000010    -5.938788   -90.784314
	   55 R(3,6)          =      3.670665     0.003314     0.031465     3.702130
	 ---------------------------------------------------------------------------
	Successfully symmetrized geometry.

  ==> Convergence Check <==

  Measures of convergence in internal coordinates in au.
  Criteria marked as inactive (o), active & met (*), and active & unmet ( ).
  ---------------------------------------------------------------------------------------------
   Step     Total Energy     Delta E     MAX Force     RMS Force      MAX Disp      RMS Disp   
  ---------------------------------------------------------------------------------------------
    Convergence Criteria    1.00e-06 *    3.00e-04 *             o    1.20e-03 *             o
  ---------------------------------------------------------------------------------------------
      2   -1648.29293979   -1.09e-03      2.93e-03      6.47e-04 o    1.42e-01      4.36e-02 o  ~
  ---------------------------------------------------------------------------------------------

	Writing optimization data to binary file.
	Structure for next step:
	Cartesian Geometry (in Angstrom)
	    C    -0.0533817870  -0.4802734893  -1.1515328673
	    O    -1.0473060369  -0.6063322048  -1.7904221318
	   CL     1.4597782283   0.3655240548   0.9243926011
	   CL    -1.4623274413   0.4650293349   0.9850281149
	    H     1.1686165101   3.3935728601  -2.5247596516
	    C     1.1842696750   2.3545349689  -2.1858638489
	    H     1.1640687407   1.6924040398  -3.0584433946
	    H     2.1066504867   2.1829540396  -1.6314644037
	    O     0.1169650359   2.0780691099  -1.2936813138
	    H    -0.7222623214   2.1991584286  -1.7489954436
	    C    -0.0495697090  -0.3954578995   0.3958652134
	   CL    -0.0762577137  -2.0960534584   0.9575805549
	    H     0.9673907454  -0.5056665386  -1.5697648372
			--------------------------
			 OPTKING Finished Execution 
			--------------------------

    Structure for next step:
    Molecular point group: c1
    Full point group: C1

    Geometry (in Angstrom), charge = 0, multiplicity = 1:

    C           -0.053721380274    -0.514361219280    -1.179697810569
    O           -1.047645630213    -0.640419934750    -1.818587075086
    CL           1.459438635014     0.331436324831     0.896227657834
    CL          -1.462667034549     0.430941604896     0.956863171572
    H            1.168276916835     3.359485130084    -2.552924594847
    C            1.183930081659     2.320447238919    -2.214028792151
    H            1.163729147400     1.658316309807    -3.086608337925
    H            2.106310893384     2.148866309638    -1.659629347032
    O            0.116625442624     2.043981379896    -1.321846257119
    H           -0.722601914732     2.165070698645    -1.777160386854
    C           -0.049909302288    -0.429545629534     0.367700270144
    CL          -0.076597306948    -2.130141188428     0.929415611617
    H            0.967051152105    -0.539754268643    -1.597929780544

gradient() will perform analytic gradient computation.

*** tstart() called on localhost.localdomain
*** at Tue Mar 19 13:09:14 2019

   => Loading Basis Set <=

    Name: 6-311++G(D,P)
    Role: ORBITAL
    Keyword: BASIS
    atoms 1, 6, 11       entry C          line   119 file /root/psi4conda/share/psi4/basis/6-311ppg_d_p_.gbs 
    atoms 2, 9           entry O          line   161 file /root/psi4conda/share/psi4/basis/6-311ppg_d_p_.gbs 
    atoms 3-4, 12        entry CL         line   458 file /root/psi4conda/share/psi4/basis/6-311ppg_d_p_.gbs 
    atoms 5, 7-8, 10, 13 entry H          line    42 file /root/psi4conda/share/psi4/basis/6-311ppg_d_p_.gbs 


         ---------------------------------------------------------
                                   SCF
            by Justin Turney, Rob Parrish, Andy Simmonett
                             and Daniel Smith
                              RKS Reference
                       16 Threads,    500 MiB Core
         ---------------------------------------------------------

  ==> Geometry <==

    Molecular point group: c1
    Full point group: C1

    Geometry (in Angstrom), charge = 0, multiplicity = 1:

       Center              X                  Y                   Z               Mass       
    ------------   -----------------  -----------------  -----------------  -----------------
         C           -0.053721380274    -0.514361219280    -1.179697810569    12.000000000000
         O           -1.047645630213    -0.640419934750    -1.818587075086    15.994914619560
         CL           1.459438635014     0.331436324831     0.896227657834    34.968852682000
         CL          -1.462667034549     0.430941604896     0.956863171572    34.968852682000
         H            1.168276916835     3.359485130084    -2.552924594847     1.007825032070
         C            1.183930081659     2.320447238919    -2.214028792151    12.000000000000
         H            1.163729147400     1.658316309807    -3.086608337925     1.007825032070
         H            2.106310893384     2.148866309638    -1.659629347032     1.007825032070
         O            0.116625442624     2.043981379896    -1.321846257119    15.994914619560
         H           -0.722601914732     2.165070698645    -1.777160386854     1.007825032070
         C           -0.049909302288    -0.429545629534     0.367700270144    12.000000000000
         CL          -0.076597306948    -2.130141188428     0.929415611617    34.968852682000
         H            0.967051152105    -0.539754268643    -1.597929780544     1.007825032070

  Running in c1 symmetry.

  Rotational constants: A =      0.05007  B =      0.02766  C =      0.02562 [cm^-1]
  Rotational constants: A =   1501.09936  B =    829.21577  C =    768.08500 [MHz]
  Nuclear repulsion =  655.925894277137331

  Charge       = 0
  Multiplicity = 1
  Electrons    = 90
  Nalpha       = 45
  Nbeta        = 45

  ==> Algorithm <==

  SCF Algorithm Type is DF.
  DIIS enabled.
  MOM disabled.
  Fractional occupation disabled.
  Guess Type is READ.
  Energy threshold   = 1.00e-08
  Density threshold  = 1.00e-08
  Integral threshold = 0.00e+00

  ==> Primary Basis <==

  Basis Set: 6-311++G(D,P)
    Blend: 6-311++G(D,P)
    Number of shells: 117
    Number of basis function: 235
    Number of Cartesian functions: 243
    Spherical Harmonics?: true
    Max angular momentum: 2

  ==> DFT Potential <==

   => Composite Functional: M06-2X <= 

    Hybrid M06-2X Meta-GGA XC Functional

    Y. Zhao and D. G. Truhlar,  Theor. Chem. Acc., 120, 215, 2008


    Deriv               =              1
    GGA                 =           TRUE
    Meta                =           TRUE

    Exchange Hybrid     =           TRUE
    MP2 Hybrid          =          FALSE

   => Exchange Functionals <=

    1.0000   XC_HYB_MGGA_X_M06_2X

   => Exact (HF) Exchange <=

    0.5400               HF 

   => Correlation Functionals <=

    1.0000   XC_MGGA_C_M06_2X

   => Molecular Quadrature <=

    Radial Scheme       =       TREUTLER
    Pruning Scheme      =           FLAT
    Nuclear Scheme      =       TREUTLER

    BS radius alpha     =              1
    Pruning alpha       =              1
    Radial Points       =             75
    Spherical Points    =            302
    Total Points        =         294163
    Total Blocks        =           2270
    Max Points          =            256
    Max Functions       =            208

   => Loading Basis Set <=

    Name: (6-311++G(D,P) AUX)
    Role: JKFIT
    Keyword: DF_BASIS_SCF
    atoms 1, 6, 11       entry C          line   162 file /root/psi4conda/share/psi4/basis/aug-cc-pvtz-jkfit.gbs 
    atoms 2, 9           entry O          line   286 file /root/psi4conda/share/psi4/basis/aug-cc-pvtz-jkfit.gbs 
    atoms 3-4, 12        entry CL         line   816 file /root/psi4conda/share/psi4/basis/aug-cc-pvtz-jkfit.gbs 
    atoms 5, 7-8, 10, 13 entry H          line    70 file /root/psi4conda/share/psi4/basis/aug-cc-pvtz-jkfit.gbs 

  Reading orbitals from file 180, no projection.

  ==> Pre-Iterations <==

   -------------------------------------------------------
    Irrep   Nso     Nmo     Nalpha   Nbeta   Ndocc  Nsocc
   -------------------------------------------------------
     A        235     235       0       0       0       0
   -------------------------------------------------------
    Total     235     235      45      45      45       0
   -------------------------------------------------------

  ==> Integral Setup <==

  ==> DiskDFJK: Density-Fitted J/K Matrices <==

    J tasked:                  Yes
    K tasked:                  Yes
    wK tasked:                  No
    OpenMP threads:             16
    Integrals threads:          16
    Memory (MB):               375
    Algorithm:                Core
    Integral Cache:           NONE
    Schwarz Cutoff:          1E-12
    Fitting Condition:       1E-12

   => Auxiliary Basis Set <=

  Basis Set: (6-311++G(D,P) AUX)
    Blend: AUG-CC-PVTZ-JKFIT
    Number of shells: 346
    Number of basis function: 1188
    Number of Cartesian functions: 1470
    Spherical Harmonics?: true
    Max angular momentum: 4

  Minimum eigenvalue in the overlap matrix is 2.3926157622E-05.
  Using Symmetric Orthogonalization.

  SCF Guess: Orbitals guess was supplied from a previous computation.

  ==> Iterations <==

                           Total Energy        Delta E     RMS |[F,P]|

   @DF-RKS iter   0: -1648.25735504803811   -1.64826e+03   5.49949e-03 
   @DF-RKS iter   1: -1648.29123656034972   -3.38815e-02   5.98829e-04 
   @DF-RKS iter   2: -1648.29156844662862   -3.31886e-04   1.00692e-03 DIIS
   @DF-RKS iter   3: -1648.29311658221741   -1.54814e-03   1.86488e-04 DIIS
   @DF-RKS iter   4: -1648.29319352873017   -7.69465e-05   5.83803e-05 DIIS
   @DF-RKS iter   5: -1648.29321013283106   -1.66041e-05   3.29718e-05 DIIS
   @DF-RKS iter   6: -1648.29321227097762   -2.13815e-06   1.08717e-05 DIIS
   @DF-RKS iter   7: -1648.29321270525361   -4.34276e-07   3.25516e-06 DIIS
   @DF-RKS iter   8: -1648.29321278648808   -8.12345e-08   1.02138e-06 DIIS
   @DF-RKS iter   9: -1648.29321279765963   -1.11716e-08   4.38228e-07 DIIS
   @DF-RKS iter  10: -1648.29321279979035   -2.13072e-09   1.98465e-07 DIIS
   @DF-RKS iter  11: -1648.29321280030854   -5.18185e-10   4.94717e-08 DIIS
   @DF-RKS iter  12: -1648.29321280033810   -2.95586e-11   9.45846e-09 DIIS

  ==> Post-Iterations <==

    Orbital Energies [Eh]
    ---------------------

    Doubly Occupied:                                                      

       1A   -102.702791     2A   -102.701526     3A   -102.698490  
       4A    -19.661411     5A    -19.644375     6A    -10.737114  
       7A    -10.674635     8A    -10.595779     9A     -9.845235  
      10A     -9.844321    11A     -9.841187    12A     -7.570584  
      13A     -7.569680    14A     -7.566698    15A     -7.563209  
      16A     -7.563004    17A     -7.562332    18A     -7.562135  
      19A     -7.559032    20A     -7.558994    21A     -1.222310  
      22A     -1.166087    23A     -1.060226    24A     -0.947136  
      25A     -0.944990    26A     -0.799671    27A     -0.796387  
      28A     -0.677368    29A     -0.608074    30A     -0.603520  
      31A     -0.573816    32A     -0.567967    33A     -0.539038  
      34A     -0.530422    35A     -0.519444    36A     -0.490681  
      37A     -0.434362    38A     -0.426916    39A     -0.423267  
      40A     -0.419147    41A     -0.393524    42A     -0.389858  
      43A     -0.376500    44A     -0.374695    45A     -0.359743  

    Virtual:                                                              

      46A     -0.027332    47A     -0.009551    48A      0.000749  
      49A      0.008879    50A      0.015750    51A      0.027120  
      52A      0.036495    53A      0.043872    54A      0.049201  
      55A      0.054452    56A      0.059356    57A      0.065003  
      58A      0.076484    59A      0.087165    60A      0.093221  
      61A      0.099046    62A      0.105702    63A      0.113620  
      64A      0.118131    65A      0.122070    66A      0.129728  
      67A      0.134247    68A      0.137834    69A      0.140919  
      70A      0.142121    71A      0.147684    72A      0.152129  
      73A      0.165268    74A      0.174839    75A      0.180167  
      76A      0.189489    77A      0.212447    78A      0.213432  
      79A      0.229669    80A      0.235618    81A      0.247240  
      82A      0.261691    83A      0.267071    84A      0.286660  
      85A      0.298870    86A      0.306181    87A      0.311125  
      88A      0.316836    89A      0.334001    90A      0.338878  
      91A      0.342872    92A      0.366312    93A      0.402218  
      94A      0.413889    95A      0.441766    96A      0.444315  
      97A      0.447287    98A      0.465018    99A      0.478392  
     100A      0.488642   101A      0.494068   102A      0.495896  
     103A      0.506249   104A      0.516857   105A      0.526795  
     106A      0.547342   107A      0.568713   108A      0.576084  
     109A      0.584149   110A      0.592574   111A      0.625962  
     112A      0.642996   113A      0.651536   114A      0.683575  
     115A      0.694859   116A      0.709545   117A      0.754746  
     118A      0.830901   119A      0.879360   120A      0.893513  
     121A      0.912068   122A      0.916258   123A      0.923299  
     124A      0.929766   125A      0.934761   126A      0.948536  
     127A      0.970472   128A      0.972477   129A      0.980004  
     130A      1.018435   131A      1.024911   132A      1.039172  
     133A      1.061722   134A      1.069361   135A      1.081690  
     136A      1.123786   137A      1.154771   138A      1.157097  
     139A      1.196945   140A      1.211300   141A      1.223510  
     142A      1.247382   143A      1.264004   144A      1.291526  
     145A      1.318699   146A      1.333228   147A      1.378089  
     148A      1.406723   149A      1.472144   150A      1.486762  
     151A      1.517018   152A      1.538124   153A      1.569325  
     154A      1.588368   155A      1.609880   156A      1.620178  
[...]
         C           -0.079713081199    -0.445150186982     0.368947837181    12.000000000000
         CL          -0.229592551945    -2.136875022766     0.930672128642    34.968852682000
         H            1.085969549954    -0.696184403376    -1.502022868273     1.007825032070

  Nuclear repulsion =  653.939018259425893

  ==> Basis Set <==

  Basis Set: 6-311++G(D,P)
    Blend: 6-311++G(D,P)
    Number of shells: 117
    Number of basis function: 235
    Number of Cartesian functions: 243
    Spherical Harmonics?: true
    Max angular momentum: 2

  ==> DFJKGrad: Density-Fitted SCF Gradients <==

    Gradient:                    1
    J tasked:                  Yes
    K tasked:                  Yes
    wK tasked:                  No
    OpenMP threads:             16
    Integrals threads:          16
    Memory (MB):               375
    Schwarz Cutoff:          0E+00
    Fitting Condition:       1E-12

   => Auxiliary Basis Set <=

  Basis Set: (6-311++G(D,P) AUX)
    Blend: AUG-CC-PVTZ-JKFIT
    Number of shells: 346
    Number of basis function: 1188
    Number of Cartesian functions: 1470
    Spherical Harmonics?: true
    Max angular momentum: 4

  ==> DFT Potential <==

   => Composite Functional: M06-2X <= 

    Hybrid M06-2X Meta-GGA XC Functional

    Y. Zhao and D. G. Truhlar,  Theor. Chem. Acc., 120, 215, 2008


    Deriv               =              1
    GGA                 =           TRUE
    Meta                =           TRUE

    Exchange Hybrid     =           TRUE
    MP2 Hybrid          =          FALSE

   => Exchange Functionals <=

    1.0000   XC_HYB_MGGA_X_M06_2X

   => Exact (HF) Exchange <=

    0.5400               HF 

   => Correlation Functionals <=

    1.0000   XC_MGGA_C_M06_2X

   => Molecular Quadrature <=

    Radial Scheme       =       TREUTLER
    Pruning Scheme      =           FLAT
    Nuclear Scheme      =       TREUTLER

    BS radius alpha     =              1
    Pruning alpha       =              1
    Radial Points       =             75
    Spherical Points    =            302
    Total Points        =         294165
    Total Blocks        =           2265
    Max Points          =            256
    Max Functions       =            207


  -Total Gradient:
     Atom            X                  Y                   Z
    ------   -----------------  -----------------  -----------------
       1        0.000059542441    -0.000045381160     0.000110401498
       2       -0.000052872682     0.000016916620    -0.000078141717
       3       -0.000047776688    -0.000041640809     0.000004813025
       4       -0.000025494110    -0.000058719965    -0.000026699247
       5       -0.000022469325     0.000011297967     0.000020667706
       6       -0.000019960033    -0.000010815968     0.000042682152
       7       -0.000007916471    -0.000009148358    -0.000017471183
       8        0.000008216173    -0.000000307468     0.000045166962
       9       -0.000052220795    -0.000031198897    -0.000008802414
      10       -0.000038901849     0.000029691955     0.000002488145
      11       -0.000030441685     0.000023467712    -0.000047145473
      12       -0.000025243257    -0.000092549905    -0.000011244225
      13        0.000003236892    -0.000002948791    -0.000014725228


*** tstop() called on localhost.localdomain at Tue Mar 19 13:15:39 2019
Module time:
	user time   =      73.26 seconds =       1.22 minutes
	system time =       2.17 seconds =       0.04 minutes
	total time  =          5 seconds =       0.08 minutes
Total time:
	user time   =    6398.23 seconds =     106.64 minutes
	system time =     137.28 seconds =       2.29 minutes
	total time  =        457 seconds =       7.62 minutes

			-----------------------------------------
			 OPTKING 2.0: for geometry optimizations 
			  - R.A. King,  Bethel University        
			-----------------------------------------

	Previous internal coordinate definitions found.
	---Fragment 1 Geometry and Gradient---
	 C           0.0787711642       -1.0534062958       -2.2162160107
	 O          -1.6995878256       -1.0931895925       -3.5837625800
	 CL          2.6523884987        0.4904307205        1.9465631436
	 CL         -2.8311099040        0.9134511972        1.5806714217
	 H           2.3984975121        6.4532857219       -4.7811643426
	 C           2.4438523397        4.4536022202       -4.2639037413
	 H           2.1647189664        3.3040779905       -5.9622484512
	 H           4.2933544866        4.0270481345       -3.4645475220
	 O           0.6368558939        3.8800262579       -2.3708841946
	 H          -1.0300864501        4.2333525528       -3.0013812775
	 C          -0.1506358927       -0.8412119414        0.6972103696
	 CL         -0.4338670453       -4.0381085732        1.7587154426
	 H           2.0521850381       -1.3155978604       -2.8384118664
	             0.0000595424       -0.0000453812        0.0001104015
	            -0.0000528727        0.0000169166       -0.0000781417
	            -0.0000477767       -0.0000416408        0.0000048130
	            -0.0000254941       -0.0000587200       -0.0000266992
	            -0.0000224693        0.0000112980        0.0000206677
	            -0.0000199600       -0.0000108160        0.0000426822
	            -0.0000079165       -0.0000091484       -0.0000174712
	             0.0000082162       -0.0000003075        0.0000451670
	            -0.0000522208       -0.0000311989       -0.0000088024
	            -0.0000389018        0.0000296920        0.0000024881
	            -0.0000304417        0.0000234677       -0.0000471455
	            -0.0000252433       -0.0000925499       -0.0000112442
	             0.0000032369       -0.0000029488       -0.0000147252

	---Fragment 1 Intrafragment Coordinates---
	 - Coordinate -           - BOHR/RAD -       - ANG/DEG -
	 R(1,2)           =         2.243731	       1.187331
	 R(1,9)           =         4.967307	       2.628586
	 R(1,11)          =         2.930138	       1.550562
	 R(1,13)          =         2.085722	       1.103716
	 R(3,11)          =         3.345310	       1.770262
	 R(4,11)          =         3.323295	       1.758612
	 R(5,6)           =         2.065998	       1.093279
	 R(6,7)           =         2.069709	       1.095243
	 R(6,8)           =         2.059509	       1.089845
	 R(6,9)           =         2.679132	       1.417736
	 R(9,10)          =         1.816883	       0.961453
	 R(11,12)         =         3.380408	       1.788835
	 B(1,9,6)         =         1.886420	     108.083882
	 B(1,9,10)        =         1.671836	      95.789150
	 B(1,11,3)        =         1.911935	     109.545785
	 B(1,11,4)        =         1.945189	     111.451092
	 B(1,11,12)       =         1.823786	     104.495215
	 B(2,1,9)         =         1.658590	      95.030192
	 B(2,1,11)        =         2.147485	     123.041819
	 B(2,1,13)        =         2.172276	     124.462264
	 B(3,11,4)        =         1.945901	     111.491889
	 B(3,11,12)       =         1.906446	     109.231336
	 B(4,11,12)       =         1.926520	     110.381466
	 B(5,6,7)         =         1.906221	     109.218428
	 B(5,6,8)         =         1.893737	     108.503117
	 B(5,6,9)         =         1.949070	     111.673486
	 B(6,9,10)        =         1.909195	     109.388841
	 B(7,6,8)         =         1.901353	     108.939509
	 B(7,6,9)         =         1.949729	     111.711261
	 B(8,6,9)         =         1.862005	     106.685014
	 B(9,1,11)        =         1.538623	      88.156584
	 B(9,1,13)        =         1.580057	      90.530571
	 B(11,1,13)       =         1.960366	     112.320719
	 D(1,9,6,5)       =         2.874139	     164.676011
	 D(1,9,6,7)       =         0.733501	      42.026506
	 D(1,9,6,8)       =        -1.342576	     -76.923937
	 D(2,1,9,6)       =        -1.655910	     -94.876644
	 D(2,1,9,10)      =         0.309146	      17.712762
	 D(2,1,11,3)      =        -2.706519	    -155.072091
	 D(2,1,11,4)      =        -0.544709	     -31.209523
	 D(2,1,11,12)     =         1.535969	      88.004527
	 D(3,11,1,9)      =        -1.051908	     -60.269866
	 D(3,11,1,13)     =         0.515690	      29.546888
	 D(4,11,1,9)      =         1.109902	      63.592701
	 D(4,11,1,13)     =         2.677500	     153.409455
	 D(5,6,9,10)      =         1.073925	      61.531376
	 D(6,9,1,11)      =         2.480317	     142.111701
	 D(6,9,1,13)      =         0.520043	      29.796253
	 D(7,6,9,10)      =        -1.066713	     -61.118129
	 D(8,6,9,10)      =         3.140396	     179.931428
	 D(9,1,11,12)     =        -3.092606	    -177.193249
	 D(10,9,1,11)     =        -1.837812	    -105.298892
	 D(10,9,1,13)     =         2.485099	     142.385660
	 D(12,11,1,13)    =        -1.525008	     -87.376494
	 R(3,6)           =         7.370218	       3.900151

	Current energy   :     -1648.2934620754

	Energy change for the previous step:
		Projected    :         0.0000001578
		Actual       :        -0.0000004426

	Performing BFGS update.
	Previous computed or guess Hessian on step 1.
	Steps to be used in Hessian update: 17 16
	Taking RFO optimization step.
	Going to follow RFO solution 1.
	Using RFO vector 1.
	Norm of target step-size    0.00780
	Projected energy change by RFO approximation:        -0.0000009618

	Back-transformation to cartesian coordinates...
	Successfully converged to displaced geometry.

	--- Internal Coordinate Step in ANG or DEG, aJ/ANG or AJ/DEG ---
	 ---------------------------------------------------------------------------
	   Coordinate                Previous        Force       Change         New 
	   ----------                --------       ------       ------       ------
	    1 R(1,2)          =      1.187331    -0.000600    -0.000061     1.187270
	    2 R(1,9)          =      2.628586    -0.000048    -0.001472     2.627114
	    3 R(1,11)         =      1.550562     0.000344     0.000150     1.550712
	    4 R(1,13)         =      1.103716    -0.000092    -0.000034     1.103682
	    5 R(3,11)         =      1.770262     0.000139     0.000052     1.770314
	    6 R(4,11)         =      1.758612     0.000162     0.000084     1.758696
	    7 R(5,6)          =      1.093279    -0.000110    -0.000041     1.093238
	    8 R(6,7)          =      1.095243    -0.000302    -0.000089     1.095154
	    9 R(6,8)          =      1.089845    -0.000249    -0.000083     1.089762
	   10 R(6,9)          =      1.417736    -0.000036    -0.000033     1.417703
	   11 R(9,10)         =      0.961453    -0.000199    -0.000033     0.961420
	   12 R(11,12)        =      1.788835    -0.000485    -0.000264     1.788571
	   13 B(1,9,6)        =    108.083882     0.000005     0.034555   108.118437
	   14 B(1,9,10)       =     95.789150    -0.000003    -0.188356    95.600794
	   15 B(1,11,3)       =    109.545785     0.000003     0.000240   109.546025
	   16 B(1,11,4)       =    111.451092    -0.000001    -0.007630   111.443463
	   17 B(1,11,12)      =    104.495215    -0.000000     0.008603   104.503818
	   18 B(2,1,9)        =     95.030192     0.000003     0.062849    95.093041
	   19 B(2,1,11)       =    123.041819    -0.000001    -0.006165   123.035654
	   20 B(2,1,13)       =    124.462264     0.000000     0.008159   124.470423
	   21 B(3,11,4)       =    111.491889    -0.000001    -0.007155   111.484734
	   22 B(3,11,12)      =    109.231336    -0.000001     0.005235   109.236570
	   23 B(4,11,12)      =    110.381466     0.000000     0.001945   110.383411
	   24 B(5,6,7)        =    109.218428     0.000001     0.008201   109.226629
	   25 B(5,6,8)        =    108.503117     0.000000     0.001845   108.504961
	   26 B(5,6,9)        =    111.673486    -0.000000    -0.001057   111.672429
	   27 B(6,9,10)       =    109.388841    -0.000000    -0.002687   109.386154
	   28 B(7,6,8)        =    108.939509    -0.000000    -0.005948   108.933562
	   29 B(7,6,9)        =    111.711261    -0.000000    -0.002357   111.708904
	   30 B(8,6,9)        =    106.685014    -0.000000    -0.001026   106.683988
	   31 B(9,1,11)       =     88.156584    -0.000005     0.000693    88.157278
	   32 B(9,1,13)       =     90.530571     0.000002    -0.054028    90.476544
	   33 B(11,1,13)      =    112.320719     0.000000    -0.003341   112.317378
	   34 D(1,9,6,5)      =    164.676011    -0.000000    -0.079360   164.596651
	   35 D(1,9,6,7)      =     42.026506    -0.000000    -0.087529    41.938977
	   36 D(1,9,6,8)      =    -76.923937    -0.000000    -0.078343   -77.002280
	   37 D(2,1,9,6)      =    -94.876644    -0.000000    -0.017141   -94.893786
	   38 D(2,1,9,10)     =     17.712762    -0.000000    -0.086090    17.626672
	   39 D(2,1,11,3)     =   -155.072091    -0.000000    -0.083607  -155.155697
	   40 D(2,1,11,4)     =    -31.209523    -0.000000    -0.097849   -31.307372
	   41 D(2,1,11,12)    =     88.004527    -0.000000    -0.094352    87.910176
	   42 D(3,11,1,9)     =    -60.269866     0.000000    -0.008311   -60.278178
	   43 D(3,11,1,13)    =     29.546888    -0.000000    -0.066345    29.480542
	   44 D(4,11,1,9)     =     63.592701     0.000000    -0.022554    63.570148
	   45 D(4,11,1,13)    =    153.409455    -0.000000    -0.080588   153.328868
	   46 D(5,6,9,10)     =     61.531376     0.000000     0.121238    61.652613
	   47 D(6,9,1,11)     =    142.111701     0.000000    -0.012214   142.099487
	   48 D(6,9,1,13)     =     29.796253     0.000000    -0.010553    29.785699
	   49 D(7,6,9,10)     =    -61.118129     0.000000     0.113068   -61.005061
	   50 D(8,6,9,10)     =    179.931428     0.000000     0.122254   180.053682
	   51 D(9,1,11,12)    =   -177.193249    -0.000000    -0.019056  -177.212305
	   52 D(10,9,1,11)    =   -105.298892     0.000000    -0.081163  -105.380056
	   53 D(10,9,1,13)    =    142.385660     0.000000    -0.079502   142.306157
	   54 D(12,11,1,13)   =    -87.376494    -0.000000    -0.077090   -87.453585
	   55 R(3,6)          =      3.900151    -0.000158    -0.000418     3.899733
	 ---------------------------------------------------------------------------
	Successfully symmetrized geometry.

  ==> Convergence Check <==

  Measures of convergence in internal coordinates in au.
  Criteria marked as inactive (o), active & met (*), and active & unmet ( ).
  ---------------------------------------------------------------------------------------------
   Step     Total Energy     Delta E     MAX Force     RMS Force      MAX Disp      RMS Disp   
  ---------------------------------------------------------------------------------------------
    Convergence Criteria    1.00e-06 *    3.00e-04 *             o    1.20e-03 *             o
  ---------------------------------------------------------------------------------------------
     18   -1648.29346208   -4.43e-07 *    7.29e-05 *    2.39e-05 o    3.29e-03      1.05e-03 o  ~
  ---------------------------------------------------------------------------------------------


  **** Optimization is complete! (in 18 steps) ****

  ==> Optimization Summary <==

  Measures of convergence in internal coordinates in au.
  --------------------------------------------------------------------------------------------------------------- ~
   Step         Total Energy             Delta E       MAX Force       RMS Force        MAX Disp        RMS Disp  ~
  --------------------------------------------------------------------------------------------------------------- ~
      1   -1648.291848187885  -1648.291848187885      0.01037680      0.00215263      0.13163278      0.03410365  ~
      2   -1648.292939786834     -0.001091598949      0.00292846      0.00064702      0.14194082      0.04363310  ~
      3   -1648.293212800338     -0.000273013505      0.00224928      0.00070237      0.05157961      0.02130241  ~
      4   -1648.293348298497     -0.000135498159      0.00082853      0.00029996      0.03826930      0.01013532  ~
      5   -1648.293383592141     -0.000035293644      0.00044928      0.00013999      0.02999000      0.00728225  ~
      6   -1648.293400879705     -0.000017287564      0.00032590      0.00010798      0.03941522      0.01094473  ~
      7   -1648.293422169965     -0.000021290260      0.00024446      0.00009187      0.02954857      0.00903721  ~
      8   -1648.293432225540     -0.000010055575      0.00030402      0.00006653      0.01383299      0.00460758  ~
      9   -1648.293435105140     -0.000002879601      0.00008718      0.00003584      0.02370505      0.00656373  ~
     10   -1648.293439042626     -0.000003937485      0.00009423      0.00003713      0.06599120      0.01606949  ~
     11   -1648.293448100279     -0.000009057653      0.00034927      0.00009850      0.12290041      0.02877133  ~
     12   -1648.293446002457      0.000002097822      0.00118939      0.00034997      0.11692661      0.02834766  ~
     13   -1648.293442446198      0.000003556258      0.00105967      0.00030234      0.02967222      0.00726052  ~
     14   -1648.293452864124     -0.000010417926      0.00022156      0.00007177      0.02883260      0.00610768  ~
     15   -1648.293457276672     -0.000004412548      0.00015721      0.00004494      0.02380135      0.00483439  ~
     16   -1648.293460077389     -0.000002800717      0.00011110      0.00002509      0.01542984      0.00381572  ~
     17   -1648.293461632766     -0.000001555376      0.00015589      0.00003678      0.00248200      0.00083591  ~
     18   -1648.293462075378     -0.000000442612      0.00007288      0.00002395      0.00328743      0.00105129  ~
  --------------------------------------------------------------------------------------------------------------- ~

	Writing optimization data to binary file.
	Final energy is  -1648.2934620753776
	Final (previous) structure:
	Cartesian Geometry (in Angstrom)
	    C     0.0416839048  -0.5574386031  -1.1727710022
	    O    -0.8993831413  -0.5784910170  -1.8964454783
	   CL     1.4035835419   0.2595247597   1.0300768506
	   CL    -1.4981588362   0.4833775547   0.8364552906
	    H     1.2692302183   3.4149317245  -2.5300832006
	    C     1.2932309593   2.3567447911  -2.2563606795
	    H     1.1455199400   1.7484427680  -3.1550859923
	    H     2.2719453427   2.1310220907  -1.8333595867
	    O     0.3370096242   2.0532214644  -1.2546178800
	    H    -0.5450982723   2.2401936869  -1.5882625663
	    C    -0.0797130812  -0.4451501870   0.3689478372
	   CL    -0.2295925519  -2.1368750228   0.9306721286
	    H     1.0859695500  -0.6961844034  -1.5020228683
	Saving final (previous) structure.
	Removing binary optimization data file.
			--------------------------
			 OPTKING Finished Execution 
			--------------------------

    Final optimized geometry and variables:
    Molecular point group: c1
    Full point group: C1

    Geometry (in Angstrom), charge = 0, multiplicity = 1:

    C            0.041683904765    -0.557438603123    -1.172771002161
    O           -0.899383141286    -0.578491017000    -1.896445478322
    CL           1.403583541863     0.259524759706     1.030076850649
    CL          -1.498158836207     0.483377554724     0.836455290631
    H            1.269230218259     3.414931724526    -2.530083200621
    C            1.293230959331     2.356744791069    -2.256360679522
    H            1.145519940032     1.748442767983    -3.155085992334
    H            2.271945342711     2.131022090690    -1.833359586707
    O            0.337009624203     2.053221464392    -1.254617879967
    H           -0.545098272278     2.240193686893    -1.588262566316
    C           -0.079713081199    -0.445150186982     0.368947837181
    CL          -0.229592551945    -2.136875022766     0.930672128642
    H            1.085969549954    -0.696184403376    -1.502022868273

	Removing binary optimization data file.
	Cleaning optimization helper files.

    Psi4 stopped on: Tuesday, 19 March 2019 01:15PM
    Psi4 wall time for execution: 0:07:37.33

*** Psi4 exiting successfully. Buy a developer a beer!
