
Host: localhost.localdomain

Timers On : Tue Apr 30 12:08:00 2019
Timers Off: Tue Apr 30 12:08:01 2019

Wall Time:        1.43 seconds


-----------------------------------------------------------

***********************************************************

Host: localhost.localdomain

Timers On : Tue Apr 30 12:09:41 2019
Timers Off: Tue Apr 30 12:09:43 2019

Wall Time:        1.34 seconds


-----------------------------------------------------------

***********************************************************

Host: localhost.localdomain

Timers On : Tue Apr 30 12:11:00 2019
Timers Off: Tue Apr 30 12:11:01 2019

Wall Time:        1.37 seconds


-----------------------------------------------------------

***********************************************************

Host: localhost.localdomain

Timers On : Tue Apr 30 12:12:48 2019
Timers Off: Tue Apr 30 12:12:49 2019

Wall Time:        1.34 seconds


-----------------------------------------------------------

***********************************************************

Host: localhost.localdomain

Timers On : Tue Apr 30 12:13:18 2019
Timers Off: Tue Apr 30 12:13:20 2019

Wall Time:        1.38 seconds


-----------------------------------------------------------

***********************************************************

Host: localhost.localdomain

Timers On : Tue Apr 30 12:13:57 2019
Timers Off: Tue Apr 30 12:13:58 2019

Wall Time:        1.36 seconds


-----------------------------------------------------------

***********************************************************

Host: localhost.localdomain

Timers On : Tue Apr 30 12:16:16 2019
Timers Off: Tue Apr 30 12:16:17 2019

Wall Time:        1.32 seconds


-----------------------------------------------------------

***********************************************************

Host: localhost.localdomain

Timers On : Tue Apr 30 12:17:05 2019
Timers Off: Tue Apr 30 12:17:06 2019

Wall Time:        1.43 seconds


-----------------------------------------------------------

***********************************************************

Host: localhost.localdomain

Timers On : Tue Apr 30 12:18:50 2019
Timers Off: Tue Apr 30 12:18:52 2019

Wall Time:        1.32 seconds


-----------------------------------------------------------

***********************************************************

Host: localhost.localdomain

Timers On : Tue Apr 30 12:25:17 2019
Timers Off: Tue Apr 30 12:25:18 2019

Wall Time:        1.33 seconds


-----------------------------------------------------------

***********************************************************

Host: localhost.localdomain

Timers On : Tue Apr 30 12:26:23 2019
Timers Off: Tue Apr 30 12:26:24 2019

Wall Time:        1.36 seconds


-----------------------------------------------------------

***********************************************************

Host: localhost.localdomain

Timers On : Tue Apr 30 12:27:23 2019
Timers Off: Tue Apr 30 12:27:24 2019

Wall Time:        1.34 seconds


-----------------------------------------------------------

***********************************************************

Host: localhost.localdomain

Timers On : Tue Apr 30 12:28:45 2019
Timers Off: Tue Apr 30 12:28:46 2019

Wall Time:        1.35 seconds


-----------------------------------------------------------

***********************************************************

Host: localhost.localdomain

Timers On : Thu May  9 15:14:35 2019
Timers Off: Thu May  9 15:14:37 2019

Wall Time:        1.40 seconds


-----------------------------------------------------------

***********************************************************
