[Molden Format]

[FREQ]
       -1390.2910589769
          67.0204402801
          99.8663618096
         185.2836986714
         222.1540410033
         231.1311717543
         283.9090491419
         365.1746400224
         422.3056656110
         537.2063963030
         563.6512797408
         695.3356432770
         723.9939832330
         778.8593479377
         875.7078274266
        1056.8809984992
        1129.1663418105
        1184.2184998536
        1212.9272959366
        1222.1366394592
        1258.6902976226
        1264.3365634000
        1347.8123945736
        1362.7064958653
        1474.9353165148
        1502.0472688557
        1511.4797503004
        1536.6050969049
        2214.8090371131
        2998.3213174602
        3078.0890719126
        3170.5745451907
        3197.3841110674

[FR-COORD]
C          0.0126489354       -0.5284377704       -1.5130241464
O         -2.0455339096       -0.7970680754       -2.8119312872
F          2.0084064512       -0.0452711985        2.4472009615
F         -2.0740505810        0.1523015513        2.4113265667
H          1.8466004211        5.4994031733       -3.4371282960
C          2.2873805864        3.5295265487       -3.0509575123
H          2.6473575473        2.5083545182       -4.8084901995
H          3.9088629795        3.4065529831       -1.7920068156
O          0.1557237153        2.4541449067       -1.7664857660
H         -1.5416855712        1.7889484666       -2.8756143156
C         -0.0943123907       -0.9549956166        1.3486875395
F         -0.1973367543       -3.4286331528        1.8313903929
H          1.8258526726       -1.2495681874       -2.2509390997

[FR-NORM-COORD]
vibration 1
          -0.0632860874       -0.0783312027       -0.0280151345
           0.0216853237       -0.0513893678        0.0202236263
           0.0006982509        0.0014134734       -0.0004895022
          -0.0002898621        0.0008422194        0.0014722956
           0.0329132265        0.0175266539       -0.0173237314
           0.0017819048        0.0138391690       -0.0112784036
          -0.0068422655       -0.0142741615        0.0081709838
          -0.0334851172       -0.0191434942        0.0220299336
          -0.0056146122        0.0427834948       -0.0022580784
           0.4894424108        0.8448812890        0.1515486619
          -0.0039366306       -0.0020327949       -0.0014072968
           0.0008304832        0.0003136862        0.0011705383
           0.0187565986        0.0512558067       -0.0055264911
vibration 2
          -0.1519582267        0.0045315522       -0.0177050253
          -0.2202697366        0.1691887003        0.0569819915
          -0.1016512815        0.2383578921       -0.0790042677
          -0.1245840941       -0.2165949584        0.0474328725
           0.3762480791       -0.1663613418       -0.0293754029
           0.2474433805       -0.1749941806        0.0721563029
           0.3299230899       -0.2571336971        0.1372356411
           0.1420160059       -0.2188991014        0.2037304178
           0.0946292687       -0.0195486609       -0.0489818320
           0.0469432704        0.1221912011       -0.0557168092
          -0.0372544621        0.0077819564       -0.0137302907
           0.2603914010       -0.0095799828       -0.0098828995
          -0.2383395431       -0.1473417066       -0.0862494662
vibration 3
          -0.0584258333       -0.0713017138       -0.0482578699
          -0.0574042282       -0.0961917425       -0.0400068323
           0.0662834739        0.0156877422       -0.1562442110
           0.0663480697        0.0891517085       -0.0079263730
           0.0102765011        0.0517293226        0.2637445788
           0.0606406198        0.0703494581        0.3020377430
           0.4236170867        0.1251041007        0.3451651403
          -0.1437633728        0.1387913304        0.5729141876
          -0.0857015849       -0.0778324260       -0.0731037776
          -0.0066575324       -0.0979377972       -0.1800559218
           0.0016965849        0.0051082086       -0.0376190098
          -0.0267243614        0.0307382989        0.0726273322
          -0.0552967119       -0.0610431737       -0.0547387191
vibration 4
           0.0067983431       -0.0476419832       -0.0315993859
          -0.0044549809        0.0319269103       -0.0340550464
          -0.0008662696        0.0385649528       -0.0610344747
          -0.0097513327        0.0184782632       -0.0961139634
           0.1293963918        0.1169578689        0.5116988254
          -0.0402403627       -0.0152290445        0.0311169595
          -0.4251463226        0.3126443946       -0.2382960759
           0.1338485057       -0.4647910037       -0.2367540717
           0.0288982645       -0.0372687275        0.1209794841
          -0.0284571643        0.0310592577        0.1539118973
           0.0067322327       -0.0217289956       -0.0267523916
           0.0174945183        0.0040230416        0.0941514041
          -0.0091812154       -0.0549275896       -0.0582837363
vibration 5
          -0.0139511066        0.0718432239        0.0245035445
           0.0661550608       -0.0828923207       -0.0686216302
           0.0028438501        0.0161174637        0.0129061513
           0.0143059905       -0.0038589694        0.1487626429
           0.3842045366        0.0583007472        0.4273353909
           0.0374959981       -0.0951712076        0.0329199797
          -0.2226454792        0.1617704409       -0.1687838131
           0.0606873513       -0.6376512533       -0.0497393498
          -0.1009017394        0.0363918688       -0.0750081255
           0.0074897242       -0.0241081399       -0.1706296163
          -0.0224748851        0.0498078075        0.0229254479
          -0.0033702455        0.0267464051       -0.0995735363
           0.0492207976        0.1291161581        0.1140732465
vibration 6
           0.0133761117       -0.0337575595       -0.0022489236
          -0.1270200548       -0.0530490702        0.2262565342
          -0.0189778329       -0.0348179154        0.1498678784
          -0.0048687196        0.0088916346       -0.0980747210
           0.1181690657        0.2769784370        0.4778330732
           0.0603365378        0.1676126352       -0.0097828693
          -0.0062289885        0.5787297180       -0.2598543555
           0.0798196482       -0.1817968964       -0.0683434098
           0.0467452183       -0.0455794844       -0.2046010936
           0.0028171073       -0.0668389744       -0.1082148963
           0.0454464646        0.0078348217        0.0012700359
           0.0091779073       -0.0070418120       -0.0591908290
          -0.0628470017       -0.1073648498       -0.1175168461
vibration 7
          -0.0251138394       -0.0726598652       -0.0042351264
           0.0517486365        0.0680983979       -0.1517509769
          -0.0235851004       -0.0136652524       -0.1053507627
          -0.0369072484       -0.1164830115        0.2395513445
          -0.1444215503        0.2756300261        0.1470872143
           0.0357493964        0.2596208109       -0.1240413826
           0.0184966125        0.5183599058       -0.2777298916
           0.1167056362        0.2449014828       -0.2306095566
           0.1479202625       -0.0174724742       -0.1504624030
           0.1349162697       -0.0680974239       -0.1735256699
          -0.0917528804       -0.0498621158        0.0638002888
          -0.0617783569       -0.0402874681        0.1829895571
          -0.0238250620       -0.1938104371        0.1195130586
vibration 8
          -0.0408997682        0.1390860692       -0.0344034447
          -0.0109028007        0.1127202865       -0.0718137917
           0.0690377273       -0.2013938548        0.0796724595
          -0.0226210356       -0.0683843846       -0.1527198383
           0.4333592432        0.0171817016       -0.1068947302
           0.0512796170       -0.0508890363       -0.0206780116
           0.0634879104       -0.1514350816        0.0384819519
          -0.0857107709       -0.3041298644        0.1335821085
          -0.2144522771        0.2708503698       -0.1759222346
          -0.0488578015        0.0293302016       -0.3098157095
           0.0470637925       -0.0915823142        0.0242257662
           0.0871361441       -0.0490167303        0.3209092561
           0.0127080449        0.3713866431       -0.1286277591
vibration 9
          -0.1834512591       -0.1224960228       -0.1941743074
          -0.1390876970        0.1314237273       -0.4063858022
          -0.1103363144       -0.0848834383        0.3836899475
           0.1613917357        0.2156825485        0.0841920530
          -0.2774274059       -0.0496125977        0.0797670177
          -0.0859781264       -0.0171111705        0.0285719114
          -0.0055692359        0.0566531727        0.0029609509
          -0.0758320484        0.1100843796        0.0250283057
           0.0100877338       -0.1968243727       -0.0092954993
          -0.0043985594        0.1802046359       -0.0393347314
           0.0265451500        0.0218941877        0.0137484314
           0.2442460716        0.0006501226       -0.0160177431
          -0.2641659892       -0.3357208992       -0.1812038796
vibration 10
           0.0910065501       -0.0299378639       -0.1956356929
          -0.0419925906        0.0813361178       -0.0272771460
          -0.0885548421        0.3841691574        0.1682475813
           0.3718841963       -0.1994505440        0.0096143933
           0.1232998424       -0.0244252644       -0.0523837355
          -0.0170124011       -0.0419507850        0.0137786901
           0.0192698148       -0.0998940911        0.0531100754
          -0.0789354692       -0.1087848240        0.0894488161
          -0.0792360494        0.0560689484       -0.0414690073
          -0.0790328610        0.0590842267        0.0033509117
           0.2201753339       -0.1580840714       -0.0751931519
          -0.3683948771       -0.1533845363        0.0632287324
           0.0403207143        0.1408722465       -0.4865980237
vibration 11
          -0.0139999446        0.0840361154       -0.1612295501
          -0.0759002411        0.0161739455       -0.1175209808
           0.3718003800       -0.0560411353        0.1637881867
          -0.1798025040       -0.3601780357       -0.0179021987
          -0.2532419099       -0.0887580551        0.1121169976
          -0.0644440477       -0.0562665851        0.0424204589
          -0.0069496503       -0.0009919397        0.0266751000
          -0.0765417327        0.0351631266        0.0611785521
           0.0301179962       -0.2172760547        0.0094387074
          -0.0272093049        0.3372375955        0.1080339086
           0.1578643022        0.2397368674       -0.0187072358
          -0.1793045230        0.4066749866        0.0259118911
          -0.0943850315       -0.0962507553       -0.1938207722
vibration 12
          -0.1545094018       -0.2956138683        0.2410348318
           0.0222530447        0.1230353033       -0.1134140125
           0.2761152959        0.1507727567        0.0518183748
          -0.1062376009        0.0421781258       -0.1121928898
           0.0954606570        0.0385623343       -0.0278766157
          -0.0398584210        0.0075818970        0.0060575444
          -0.0280257430        0.0173170543       -0.0047880904
          -0.0210167674       -0.0354668681       -0.0168242525
          -0.0483069801        0.0982172106       -0.0441832502
           0.1572338756       -0.3152075715       -0.2376724872
           0.0513378314       -0.0025395655        0.2466545613
          -0.0582265163       -0.1556786339       -0.1212074642
          -0.1918481325       -0.4594726180        0.3323668820
vibration 13
          -0.0490077947       -0.2364798063       -0.0762191500
          -0.0985839758       -0.1843697094       -0.0480443442
          -0.0341177677       -0.0386341720        0.0290914924
           0.0257927676       -0.0456193145        0.0259797174
           0.3456454632        0.1074099184       -0.2260175912
           0.1250279096        0.0898253128       -0.0376051754
          -0.0187290785       -0.0656002773        0.0189532259
           0.2042953241        0.0364815558       -0.1331934413
           0.0173224892        0.2567916836        0.1439882090
          -0.1708588150       -0.5928280225        0.1170490698
           0.0200240803        0.0592246341       -0.0467807053
           0.0034890012        0.1173490791       -0.0111828435
          -0.1230930055       -0.2177216199       -0.2145283951
vibration 14
          -0.2097981611        0.3869690625        0.0434675760
          -0.1559645774       -0.2866977044       -0.1420432045
           0.1175376455        0.0866312566        0.0401421269
          -0.0214200371        0.0366626032       -0.0610323390
          -0.1249392112        0.0409901357       -0.0166750616
           0.1986796901        0.1048424963       -0.0896199916
           0.0368282158        0.1054407133       -0.1087272608
           0.2811384898        0.2289040343       -0.1935903173
           0.0766875113       -0.0451162924        0.1357474961
          -0.0599139740        0.1376663045        0.0269079260
           0.0113759758       -0.0639293775        0.0691116773
          -0.0284838134       -0.1685534401        0.0229228566
          -0.1529525437        0.5115914725        0.0803130117
vibration 15
          -0.2098053752        0.0384250865        0.3420237153
           0.0257628916        0.0111673972       -0.0413520464
          -0.1317308216       -0.0513722038       -0.0315886007
           0.2376383485       -0.1351841197       -0.1385770873
          -0.1765953666       -0.0237538361        0.0680154838
           0.0016992145        0.0002841558       -0.0016585842
          -0.0545610950        0.0682793470       -0.0517295587
           0.0811396061        0.0976474898       -0.0995775272
           0.0115601072       -0.0281532998       -0.0017183240
           0.3194681954       -0.0504103117       -0.3578646572
           0.0018506836        0.0103526188       -0.0175137120
          -0.0082336570        0.1688605877       -0.0058236659
          -0.1471855901       -0.0727748156        0.5981344767
vibration 16
           0.0037730579       -0.0103992841        0.0344755599
           0.0318731978        0.0259956151       -0.0109398028
          -0.0045342991       -0.0013947479       -0.0041478620
           0.0173989558       -0.0086185781       -0.0124042985
           0.2786398968        0.1302704724       -0.0270610530
           0.0930187936        0.0762628243       -0.1119891834
           0.2894540212        0.0274063934       -0.0324190847
          -0.1811461011       -0.1383413661        0.2174835566
          -0.1056188450       -0.0715254482        0.0294084048
          -0.4757259492        0.1991940022        0.5588369837
          -0.0100714999       -0.0034862852        0.0084403826
           0.0002941714        0.0100202221       -0.0034478317
          -0.0214449786       -0.2387832972        0.1895104670
vibration 17
          -0.0440080227        0.0584682576        0.0171168000
          -0.0037875558       -0.0638715334       -0.0332542283
          -0.0137185703       -0.0070225512       -0.0091565902
           0.0198714410       -0.0138040274       -0.0169484443
           0.0800570884        0.0111483933        0.1801183613
          -0.1777347251       -0.0799215981        0.0323616757
           0.2436781236        0.0590359780        0.0328121591
          -0.3881436948       -0.1402073039        0.3100780444
           0.1927874341        0.1120906715       -0.0783654560
          -0.3779827068        0.0510050587        0.5580742876
           0.0125154219        0.0550229252        0.0265162571
          -0.0032569331       -0.0297749680        0.0093006238
          -0.1205311209       -0.1920777227        0.1023244451
vibration 18
          -0.0093109641       -0.0576594047        0.0168043137
          -0.0078498387        0.0153125865       -0.0091334482
          -0.0109392856       -0.0000183090       -0.0078079303
          -0.0197926143        0.0130835900        0.0087918806
          -0.3038055261       -0.0811400641        0.3581867632
           0.0278815235       -0.0917977268       -0.0694968219
           0.4325858643        0.3635354307       -0.2510741648
          -0.1276909197        0.1900101326        0.1615183411
          -0.0134051826        0.0308751204        0.0283414742
          -0.0069033815       -0.0715888997        0.0464724705
           0.0476734814       -0.0785360249        0.0378800853
          -0.0001117423        0.0452617353       -0.0167384710
           0.1358203733        0.4813100057       -0.1465929333
vibration 19
          -0.0407175869        0.0278785175        0.0323372256
           0.0412442996        0.0007864194       -0.0275792765
          -0.1813921064       -0.0750320212       -0.1152084962
          -0.0754951803        0.0131841597        0.0089865668
           0.0370192935        0.0064407762       -0.1027183835
           0.0308403824        0.0306854653        0.0207826498
          -0.1302986670       -0.0840478909        0.0559344144
           0.1416096527        0.0084757213       -0.1235636560
          -0.0352971857       -0.0514698906       -0.0086803918
          -0.0339994984        0.1039149703        0.0159801330
           0.4862747987        0.1882513379        0.2394615675
          -0.0314744910       -0.0492499052       -0.0069174615
          -0.3452229222       -0.0748955858       -0.6211036692
vibration 20
          -0.0067252456        0.0247393937       -0.0363968489
           0.0436115649       -0.0015914909        0.0300129329
           0.0076721290       -0.0073598278        0.0102159643
           0.0150831590       -0.0173162475       -0.0022173020
          -0.4885317969       -0.1597456763        0.2846180488
           0.0747458189       -0.0904574058       -0.0106146199
           0.0875845067        0.2658087519       -0.2086493604
           0.1232857134        0.3032595236       -0.0385980378
          -0.0664571011        0.0526802717        0.0208492389
          -0.0196493208        0.0491126594       -0.0400879609
          -0.0280991829        0.1852618004       -0.0871248446
          -0.0033705000       -0.0890900116        0.0292246824
          -0.1808716113       -0.5480462038        0.0909424970
vibration 21
           0.0302775732       -0.0388597693       -0.0166940140
          -0.0613519953        0.0140511278       -0.0059677018
          -0.0093612335       -0.0167323850       -0.0050651379
           0.0215058397       -0.0240464139       -0.0106361763
           0.2868258784        0.1300945370        0.0267224978
          -0.0485405705        0.0346975493       -0.0799585146
           0.2946974229       -0.0267528369        0.0247614708
          -0.2988722192       -0.2102370470        0.2183304351
           0.0151714911       -0.0423824869        0.0692938263
           0.3278553271       -0.1524687825       -0.3089568622
          -0.0117098177        0.2202965046       -0.0091453863
          -0.0034613690       -0.0795578018        0.0181572736
           0.3156060917        0.4039820041        0.2475315248
vibration 22
           0.0057229889       -0.0692278053       -0.0062243496
          -0.0303568167        0.0122741776       -0.0162863492
          -0.0050917407       -0.0073538353       -0.0049190011
           0.0195363746       -0.0151713086       -0.0132204475
          -0.1398091729       -0.0862856164       -0.0925860437
           0.0414301370       -0.0141590408        0.0745244933
          -0.2615772322       -0.0004318140        0.0024321608
           0.2914434804        0.1637872259       -0.2240092968
          -0.0043386347       -0.0000691734       -0.0634459795
          -0.3347775071        0.0865646113        0.3777012811
          -0.0155480878        0.0815788188        0.0352310442
          -0.0004334601       -0.0202923100        0.0000196388
           0.3549234922        0.4713384933        0.3107183187
vibration 23
           0.1523902619        0.0415963459       -0.1034046890
          -0.0327580838       -0.0200269933       -0.0154338774
          -0.0095118801       -0.0140664720       -0.0505835152
           0.1345629546       -0.0668300873       -0.0947813880
          -0.1078217765       -0.0391570310        0.0314529010
           0.0200662687       -0.0163929943       -0.0069312967
           0.0130985953        0.0550609656       -0.0488263087
          -0.0047755564        0.0262641246        0.0250376332
          -0.0242254216        0.0041047771        0.0160285450
           0.0812860195        0.1189864140       -0.0686214642
          -0.3079941001        0.0694629690        0.4667963796
           0.0197603317        0.0346910048       -0.0397373744
          -0.1934196010       -0.1646169829       -0.7034499289
vibration 24
           0.1588127942        0.0372872636       -0.0332051831
          -0.1354278938       -0.0191758807       -0.0441717090
          -0.0273070231       -0.0050526976       -0.0219406168
          -0.0176690297        0.0110599591        0.0023202957
          -0.1243651283       -0.0277656097        0.1019750229
           0.0108739040       -0.0173926564       -0.0079383135
          -0.0612683123       -0.0153115688       -0.0161676600
          -0.0536408694        0.0314007376        0.0748159533
          -0.0168356441        0.0440845877        0.0082827864
           0.1588395696        0.1513844437       -0.1204847352
           0.0919614025       -0.0786881906        0.0707789591
          -0.0040643908        0.0271107779       -0.0092309871
           0.3060246942       -0.4592867962        0.7204532536
vibration 25
          -0.0200788068        0.0215940905       -0.0445579263
           0.0126246440       -0.0003754965        0.0139590172
          -0.0017749796        0.0003805406       -0.0016989815
           0.0018663092       -0.0005003668       -0.0031658027
           0.5668018116        0.0718952865       -0.1194324124
          -0.0819993173       -0.0518590961        0.0345969839
           0.3955273566        0.3064445125       -0.0807056627
           0.2786748777        0.3685258261       -0.3754652596
          -0.0187125321       -0.0163252949        0.0155518191
          -0.0086739199        0.0403480059       -0.0560796652
           0.0049440855       -0.0135711173        0.0218265399
          -0.0001215587        0.0044966540       -0.0015499405
           0.0214172786       -0.0827178644        0.1429662745
vibration 26
          -0.0232533302       -0.0029254013       -0.0320672831
           0.0147941837        0.0024143056        0.0115204891
          -0.0005006428        0.0003358984       -0.0005054660
           0.0020016063       -0.0005149160       -0.0023994535
          -0.1819125412        0.0871979513        0.4955408463
          -0.0258285899        0.0347379785       -0.0314814309
           0.3771643310       -0.4819195454        0.3525051862
           0.2366848221       -0.1331542345       -0.3586998323
          -0.0056005686        0.0093297891       -0.0060217547
          -0.0431449241       -0.0173806142        0.0060029982
          -0.0004937760       -0.0067608253        0.0165550932
           0.0000724993        0.0035150804       -0.0018342048
           0.0259271075       -0.0023055477        0.0662636221
vibration 27
           0.0150716789       -0.0055050811        0.0251934655
          -0.0076646542       -0.0012775514       -0.0077000095
           0.0017242547        0.0002589687        0.0006646685
          -0.0001622601       -0.0000194177        0.0012713946
           0.3569679272        0.1582965184        0.4628222590
           0.0094022814       -0.0286558507       -0.0440826809
          -0.3740498591       -0.2781678421        0.0503670822
          -0.0991144346        0.6013019147        0.1701981844
           0.0008841466       -0.0082379125       -0.0115616825
          -0.0045584446        0.0155773854        0.0046224365
          -0.0064794509        0.0055821204       -0.0106002938
           0.0003867948       -0.0020459397        0.0009314228
          -0.0226275766        0.0283443951       -0.0852410735
vibration 28
           0.2393912800       -0.0199518316        0.2817668737
          -0.1343422916       -0.0209229078       -0.1082898822
           0.0099686600        0.0005580019        0.0055571348
          -0.0110785452        0.0027807276        0.0181260791
           0.0404518384       -0.0027012253       -0.0093680369
          -0.0396786172       -0.0069181354        0.0257235165
           0.3453510058        0.0404632686        0.0711259702
           0.2364824187       -0.0397942317       -0.3263997228
          -0.0260691815        0.0079601458       -0.0262488224
           0.0510465025        0.3311102899        0.1518610567
          -0.0298596183        0.0459943540       -0.1256498401
           0.0013953713       -0.0223008850        0.0124412379
          -0.1552780513        0.0063931293       -0.5981148946
vibration 29
          -0.0024882411        0.0388287781       -0.0113164579
          -0.0070778926        0.0113907325       -0.0077276237
          -0.0003087638       -0.0002123534       -0.0003081333
           0.0001035959       -0.0000259552       -0.0001674862
           0.0097524449       -0.0073430469        0.0051689933
           0.0036757418       -0.0021938048        0.0058855104
           0.0021854425        0.0090696312        0.0118909069
           0.0288701522        0.0238512694       -0.0311728996
          -0.0346922996       -0.0106255483       -0.0282325852
           0.6442674242       -0.4238608603        0.6301486035
          -0.0002967877       -0.0007767289        0.0004156775
          -0.0000862344       -0.0007164566        0.0007602637
          -0.0272645743       -0.0228208178        0.0090291687
vibration 30
          -0.0714292505        0.0285537385        0.0342640065
          -0.0006579793       -0.0003272634       -0.0017393321
           0.0007567837        0.0001067613        0.0005505320
           0.0004380018       -0.0002511557       -0.0003542074
           0.0042975768       -0.0022631247       -0.0016252767
           0.0010660575       -0.0008643464       -0.0008337454
          -0.0035120384        0.0147506091        0.0199833533
          -0.0141854358        0.0026676434       -0.0112965155
           0.0011736437        0.0006029265        0.0001965289
          -0.0056949897       -0.0177222591        0.0073646494
          -0.0026747295        0.0018070261       -0.0015210317
           0.0001142381       -0.0005506246        0.0002716075
           0.8558846829       -0.3399149092       -0.3786994701
vibration 31
           0.0016324214       -0.0025025980       -0.0008707001
           0.0003652703        0.0003663355        0.0002058371
          -0.0000306807        0.0000085906       -0.0000483272
          -0.0000147185        0.0000324432        0.0000106638
           0.0943957988       -0.4135173609        0.0741007070
           0.0316305942       -0.0004818040       -0.0364800702
          -0.1279630436        0.3864633187        0.6571876718
          -0.3603785859        0.0241498093       -0.2884835182
           0.0015973105        0.0012615781       -0.0001183145
          -0.0104420969       -0.0020101082       -0.0092053551
           0.0000662643       -0.0000234288        0.0002278690
          -0.0000018434        0.0000899079       -0.0000793992
          -0.0227151157        0.0124235275        0.0092342071
vibration 32
           0.0003977954        0.0000918860       -0.0001104986
           0.0001446199        0.0002011568        0.0000711933
           0.0000401519        0.0000164832        0.0000166293
          -0.0000159194        0.0000079971        0.0000427833
          -0.1133914419        0.4548327017       -0.1026176890
          -0.0235177483       -0.0600675936       -0.0670241015
          -0.1021547093        0.3075100973        0.5189666343
           0.4901980041       -0.0530021482        0.3789855347
          -0.0000358275       -0.0001227929        0.0003235550
           0.0026301562        0.0017382263       -0.0025818482
          -0.0001349109       -0.0000445599       -0.0001117518
           0.0000125433        0.0000068171        0.0000137199
          -0.0028102003        0.0017384905        0.0002946050
vibration 33
           0.0010369113       -0.0001878456       -0.0006133870
          -0.0000289956       -0.0000118371        0.0000157979
          -0.0000389351       -0.0000088466       -0.0000077419
          -0.0000254179        0.0000072108        0.0000300356
          -0.1687895549        0.7357934763       -0.1349887369
           0.0557601545       -0.0660207235        0.0410772614
           0.0022103038        0.0118983390        0.0449055015
          -0.4931708443        0.0320376047       -0.3952330391
          -0.0003175314        0.0002462752       -0.0002330238
          -0.0022559483       -0.0012274896        0.0028387762
           0.0000974565        0.0001078335        0.0000329965
          -0.0000118724        0.0000007136       -0.0000143590
          -0.0084907346        0.0048448853        0.0035861529
