
    -----------------------------------------------------------------------
          Psi4: An Open-Source Ab Initio Electronic Structure Package
                               Psi4 1.2.1 release

                         Git: Rev {HEAD} 406f4de 


    R. M. Parrish, L. A. Burns, D. G. A. Smith, A. C. Simmonett,
    A. E. DePrince III, E. G. Hohenstein, U. Bozkaya, A. Yu. Sokolov,
    R. Di Remigio, R. M. Richard, J. F. Gonthier, A. M. James,
    H. R. McAlexander, A. Kumar, M. Saitow, X. Wang, B. P. Pritchard,
    P. Verma, H. F. Schaefer III, K. Patkowski, R. A. King, E. F. Valeev,
    F. A. Evangelista, J. M. Turney, T. D. Crawford, and C. D. Sherrill,
    J. Chem. Theory Comput. 13(7) pp 3185--3197 (2017).
    (doi: 10.1021/acs.jctc.7b00174)


                         Additional Contributions by
    P. Kraus, H. Kruse, M. H. Lechner, M. C. Schieber, and R. A. Shaw

    -----------------------------------------------------------------------


    Psi4 started on: Thursday, 17 January 2019 04:31PM

    Process ID: 16063
    Host:       localhost.localdomain
    PSIDATADIR: /root/psi4conda/share/psi4
    Memory:     500.0 MiB
    Threads:    1
    
  ==> Input File <==

--------------------------------------------------------------------------
molecule{
0 1
    C            0.006693528323    -0.279637224262    -0.800657894312
    O           -1.082449924363    -0.421790259210    -1.488009949304
    F            1.062802919574    -0.023956486458     1.295002973653
    F           -1.097540296949     0.080594509799     1.276019061556
    H            0.977178856231     2.910158820172    -1.818849957232
    C            1.210429673681     1.867745006711    -1.614497179894
    H            1.400921277045     1.327364042081    -2.544543421282
    H            2.068481200267     1.802670198536    -0.948289164455
    O            0.082405440961     1.298677551225    -0.934784006658
    H           -0.815824867107     0.946670755852    -1.521709556490
    C           -0.049907967661    -0.505361914600     0.713694707408
    F           -0.104426112788    -1.814354521104     0.969130055961
    H            0.966199620589    -0.661243005328    -1.191145669509 
}

set{
   basis 6-311++G(d,p)
   freeze_core True
   normal_modes_write True
}


set_num_threads(16)
frequencies('m06-2x')
--------------------------------------------------------------------------
  Threads set to 16 by Python driver.
gradient() will perform analytic gradient computation.

*** tstart() called on localhost.localdomain
*** at Thu Jan 17 16:31:44 2019

   => Loading Basis Set <=

    Name: 6-311++G(D,P)
    Role: ORBITAL
    Keyword: BASIS
    atoms 1, 6, 11       entry C          line   119 file /root/psi4conda/share/psi4/basis/6-311ppg_d_p_.gbs 
    atoms 2, 9           entry O          line   161 file /root/psi4conda/share/psi4/basis/6-311ppg_d_p_.gbs 
    atoms 3-4, 12        entry F          line   182 file /root/psi4conda/share/psi4/basis/6-311ppg_d_p_.gbs 
    atoms 5, 7-8, 10, 13 entry H          line    42 file /root/psi4conda/share/psi4/basis/6-311ppg_d_p_.gbs 


         ---------------------------------------------------------
                                   SCF
            by Justin Turney, Rob Parrish, Andy Simmonett
                             and Daniel Smith
                              RKS Reference
                       16 Threads,    500 MiB Core
         ---------------------------------------------------------

  ==> Geometry <==

    Molecular point group: c1
    Full point group: C1

    Geometry (in Angstrom), charge = 0, multiplicity = 1:

       Center              X                  Y                   Z               Mass       
    ------------   -----------------  -----------------  -----------------  -----------------
         C            0.006693528323    -0.279637224262    -0.800657894312    12.000000000000
         O           -1.082449924363    -0.421790259210    -1.488009949304    15.994914619560
         F            1.062802919574    -0.023956486458     1.295002973653    18.998403224000
         F           -1.097540296949     0.080594509799     1.276019061556    18.998403224000
         H            0.977178856231     2.910158820172    -1.818849957232     1.007825032070
         C            1.210429673681     1.867745006711    -1.614497179894    12.000000000000
         H            1.400921277045     1.327364042081    -2.544543421282     1.007825032070
         H            2.068481200267     1.802670198536    -0.948289164455     1.007825032070
         O            0.082405440961     1.298677551225    -0.934784006658    15.994914619560
         H           -0.815824867107     0.946670755852    -1.521709556490     1.007825032070
         C           -0.049907967661    -0.505361914600     0.713694707408    12.000000000000
         F           -0.104426112788    -1.814354521104     0.969130055961    18.998403224000
         H            0.966199620589    -0.661243005328    -1.191145669509     1.007825032070

  Running in c1 symmetry.

  Rotational constants: A =      0.10404  B =      0.05215  C =      0.04432 [cm^-1]
  Rotational constants: A =   3118.91238  B =   1563.36102  C =   1328.80575 [MHz]
  Nuclear repulsion =  445.257257854319619

  Charge       = 0
  Multiplicity = 1
  Electrons    = 66
  Nalpha       = 33
  Nbeta        = 33

  ==> Algorithm <==

  SCF Algorithm Type is DF.
  DIIS enabled.
  MOM disabled.
  Fractional occupation disabled.
  Guess Type is SAD.
  Energy threshold   = 1.00e-08
  Density threshold  = 1.00e-08
  Integral threshold = 0.00e+00

  ==> Primary Basis <==

  Basis Set: 6-311++G(D,P)
    Blend: 6-311++G(D,P)
    Number of shells: 105
    Number of basis function: 211
    Number of Cartesian functions: 219
    Spherical Harmonics?: true
    Max angular momentum: 2

  ==> DFT Potential <==

   => Composite Functional: M06-2X <= 

    Hybrid M06-2X Meta-GGA XC Functional

    Y. Zhao and D. G. Truhlar,  Theor. Chem. Acc., 120, 215, 2008


    Deriv               =              1
    GGA                 =           TRUE
    Meta                =           TRUE

    Exchange Hybrid     =           TRUE
    MP2 Hybrid          =          FALSE

   => Exchange Functionals <=

    1.0000   XC_HYB_MGGA_X_M06_2X

   => Exact (HF) Exchange <=

    0.5400               HF 

   => Correlation Functionals <=

    1.0000   XC_MGGA_C_M06_2X

   => Molecular Quadrature <=

    Radial Scheme       =       TREUTLER
    Pruning Scheme      =           FLAT
    Nuclear Scheme      =       TREUTLER

    BS radius alpha     =              1
    Pruning alpha       =              1
    Radial Points       =             75
    Spherical Points    =            302
    Total Points        =         294450
    Total Blocks        =           2260
    Max Points          =            256
    Max Functions       =            197

   => Loading Basis Set <=

    Name: (6-311++G(D,P) AUX)
    Role: JKFIT
    Keyword: DF_BASIS_SCF
    atoms 1, 6, 11       entry C          line   162 file /root/psi4conda/share/psi4/basis/aug-cc-pvtz-jkfit.gbs 
    atoms 2, 9           entry O          line   286 file /root/psi4conda/share/psi4/basis/aug-cc-pvtz-jkfit.gbs 
    atoms 3-4, 12        entry F          line   348 file /root/psi4conda/share/psi4/basis/aug-cc-pvtz-jkfit.gbs 
    atoms 5, 7-8, 10, 13 entry H          line    70 file /root/psi4conda/share/psi4/basis/aug-cc-pvtz-jkfit.gbs 

  ==> Pre-Iterations <==

   -------------------------------------------------------
    Irrep   Nso     Nmo     Nalpha   Nbeta   Ndocc  Nsocc
   -------------------------------------------------------
     A        211     211       0       0       0       0
   -------------------------------------------------------
    Total     211     211      33      33      33       0
   -------------------------------------------------------

  ==> Integral Setup <==

  DFHelper Memory: AOs need 0.429 [GiB]; user supplied 0.366 [GiB]. Turning off in-core AOs.

  ==> MemDFJK: Density-Fitted J/K Matrices <==

    J tasked:                   Yes
    K tasked:                   Yes
    wK tasked:                   No
    OpenMP threads:              16
    Memory (MB):                375
    Algorithm:                 Disk
    Schwarz Cutoff:           1E-12
    Mask sparsity (%):       6.6261
    Fitting Condition:        1E-12

   => Auxiliary Basis Set <=

  Basis Set: (6-311++G(D,P) AUX)
    Blend: AUG-CC-PVTZ-JKFIT
    Number of shells: 310
    Number of basis function: 1062
    Number of Cartesian functions: 1323
    Spherical Harmonics?: true
    Max angular momentum: 4

  Minimum eigenvalue in the overlap matrix is 5.7172377464E-05.
  Using Symmetric Orthogonalization.

  SCF Guess: Superposition of Atomic Densities via on-the-fly atomic UHF.

  ==> Iterations <==

                           Total Energy        Delta E     RMS |[F,P]|

   @DF-RKS iter   0:  -568.97951679102368   -5.68980e+02   8.23564e-02 
   @DF-RKS iter   1:  -566.94192677935712    2.03759e+00   1.44912e-02 
   @DF-RKS iter   2:  -566.80897685964487    1.32950e-01   1.85880e-02 DIIS
   @DF-RKS iter   3:  -567.19434539507165   -3.85369e-01   2.17149e-03 DIIS
   @DF-RKS iter   4:  -567.19811669476871   -3.77130e-03   1.29880e-03 DIIS
   @DF-RKS iter   5:  -567.19994463086186   -1.82794e-03   3.35416e-04 DIIS
   @DF-RKS iter   6:  -567.20005731092863   -1.12680e-04   9.00921e-05 DIIS
   @DF-RKS iter   7:  -567.20006736391929   -1.00530e-05   3.08789e-05 DIIS
   @DF-RKS iter   8:  -567.20006833592470   -9.72005e-07   1.01886e-05 DIIS
   @DF-RKS iter   9:  -567.20006845815965   -1.22235e-07   1.84535e-06 DIIS
   @DF-RKS iter  10:  -567.20006846504566   -6.88601e-09   6.47859e-07 DIIS
   @DF-RKS iter  11:  -567.20006846563388   -5.88216e-10   3.18415e-07 DIIS
   @DF-RKS iter  12:  -567.20006846575711   -1.23237e-10   4.78464e-08 DIIS
   @DF-RKS iter  13:  -567.20006846577087   -1.37561e-11   2.01273e-08 DIIS
   @DF-RKS iter  14:  -567.20006846577132   -4.54747e-13   6.06796e-09 DIIS

  ==> Post-Iterations <==

    Orbital Energies [Eh]
    ---------------------

    Doubly Occupied:                                                      

       1A    -25.286141     2A    -25.284329     3A    -25.283505  
       4A    -19.723061     5A    -19.598724     6A    -10.803106  
       7A    -10.688449     8A    -10.634622     9A     -1.479588  
      10A     -1.385862    11A     -1.384753    12A     -1.262959  
      13A     -1.130228    14A     -0.876324    15A     -0.843312  
      16A     -0.769020    17A     -0.705857    18A     -0.703677  
      19A     -0.673038    20A     -0.657099    21A     -0.600036  
      22A     -0.583276    23A     -0.581034    24A     -0.570627  
      25A     -0.546204    26A     -0.538626    27A     -0.520628  
      28A     -0.518951    29A     -0.502855    30A     -0.477294  
      31A     -0.467282    32A     -0.371186    33A     -0.345632  

    Virtual:                                                              

      34A     -0.014600    35A      0.007404    36A      0.015220  
      37A      0.020057    38A      0.037815    39A      0.045679  
      40A      0.055824    41A      0.062199    42A      0.068509  
      43A      0.085371    44A      0.094881    45A      0.101278  
      46A      0.108147    47A      0.113499    48A      0.123001  
      49A      0.125516    50A      0.133565    51A      0.148544  
      52A      0.173289    53A      0.184069    54A      0.192047  
      55A      0.205421    56A      0.219181    57A      0.224896  
      58A      0.234302    59A      0.250993    60A      0.255081  
      61A      0.271291    62A      0.275586    63A      0.279579  
      64A      0.294001    65A      0.303561    66A      0.305128  
      67A      0.316186    68A      0.321245    69A      0.328897  
      70A      0.352917    71A      0.356779    72A      0.361633  
      73A      0.378241    74A      0.379629    75A      0.387264  
      76A      0.402651    77A      0.409420    78A      0.422331  
      79A      0.435647    80A      0.446219    81A      0.457247  
      82A      0.471351    83A      0.495858    84A      0.525078  
      85A      0.545050    86A      0.596878    87A      0.610365  
      88A      0.630996    89A      0.641088    90A      0.660486  
      91A      0.671409    92A      0.690100    93A      0.709256  
      94A      0.736710    95A      0.755310    96A      0.779352  
      97A      0.925668    98A      1.004022    99A      1.027352  
     100A      1.043588   101A      1.047880   102A      1.089747  
     103A      1.143629   104A      1.197446   105A      1.206178  
     106A      1.235331   107A      1.243653   108A      1.298824  
     109A      1.361483   110A      1.381138   111A      1.392404  
     112A      1.427444   113A      1.440924   114A      1.447314  
     115A      1.477197   116A      1.482685   117A      1.486172  
     118A      1.497694   119A      1.510895   120A      1.533235  
     121A      1.535386   122A      1.546461   123A      1.566073  
     124A      1.584562   125A      1.614388   126A      1.633558  
     127A      1.693939   128A      1.711732   129A      1.724422  
     130A      1.754274   131A      1.770613   132A      1.805275  
     133A      1.862396   134A      1.874974   135A      1.923410  
     136A      1.951655   137A      1.980291   138A      2.006513  
     139A      2.026223   140A      2.047401   141A      2.090672  
     142A      2.127311   143A      2.203906   144A      2.220579  
     145A      2.350871   146A      2.437719   147A      2.483343  
     148A      2.513089   149A      2.529178   150A      2.577123  
     151A      2.600354   152A      2.714946   153A      2.754124  
     154A      2.782692   155A      2.892381   156A      2.908052  
     157A      2.951012   158A      2.992792   159A      3.019328  
     160A      3.042593   161A      3.113134   162A      3.155441  
     163A      3.236468   164A      3.350656   165A      3.435259  
     166A      3.523934   167A      3.678228   168A      3.717694  
     169A      3.795320   170A      3.798280   171A      3.821977  
     172A      3.837025   173A      3.843403   174A      3.859440  
     175A      3.866899   176A      3.870216   177A      3.932605  
     178A      3.978989   179A      4.011935   180A      4.033760  
     181A      4.068129   182A      4.133508   183A      4.230643  
     184A      4.291944   185A      4.308459   186A      4.688716  
     187A      4.986470   188A      5.007679   189A      5.208502  
     190A      5.244560   191A      5.300224   192A      5.319667  
     193A      5.628035   194A      5.780774   195A      6.439160  
     196A      6.461917   197A      6.480677   198A      6.506862  
     199A      6.514505   200A      6.540954   201A      6.590408  
     202A      6.883844   203A      6.908095   204A     23.598344  
     205A     23.844826   206A     23.952788   207A     49.958825  
     208A     50.123941   209A     66.884483   210A     66.890195  
     211A     66.945287  

    Final Occupation by Irrep:
              A 
    DOCC [    33 ]

  Energy converged.

  @DF-RKS Final Energy:  -567.20006846577132

   => Energetics <=

    Nuclear Repulsion Energy =            445.2572578543196187
    One-Electron Energy =               -1666.8479301900215432
    Two-Electron Energy =                 686.4221431004248188
    DFT Exchange-Correlation Energy =     -32.0315392304941469
    Empirical Dispersion Energy =           0.0000000000000000
    VV10 Nonlocal Energy =                  0.0000000000000000
    Total Energy =                       -567.2000684657713236



Properties will be evaluated at   0.000000,   0.000000,   0.000000 [a0]

Properties computed using the SCF density matrix

  Nuclear Dipole Moment: [e a0]
     X:     4.4360      Y:     7.5924      Z:   -10.8740

  Electronic Dipole Moment: [e a0]
     X:    -3.0296      Y:    -6.3378      Z:    10.0567

  Dipole Moment: [e a0]
     X:     1.4063      Y:     1.2546      Z:    -0.8173     Total:     2.0542

  Dipole Moment: [D]
     X:     3.5746      Y:     3.1889      Z:    -2.0774     Total:     5.2213


*** tstop() called on localhost.localdomain at Thu Jan 17 16:32:03 2019
Module time:
	user time   =     258.04 seconds =       4.30 minutes
	system time =      10.10 seconds =       0.17 minutes
	total time  =         19 seconds =       0.32 minutes
Total time:
	user time   =     258.04 seconds =       4.30 minutes
	system time =      10.10 seconds =       0.17 minutes
	total time  =         19 seconds =       0.32 minutes

*** tstart() called on localhost.localdomain
*** at Thu Jan 17 16:32:03 2019


         ------------------------------------------------------------
                                   SCF GRAD                          
                          Rob Parrish, Justin Turney,                
                       Andy Simmonett, and Alex Sokolov              
         ------------------------------------------------------------

  ==> Geometry <==

    Molecular point group: c1
    Full point group: C1

    Geometry (in Angstrom), charge = 0, multiplicity = 1:

       Center              X                  Y                   Z               Mass       
    ------------   -----------------  -----------------  -----------------  -----------------
         C            0.006693528323    -0.279637224262    -0.800657894312    12.000000000000
         O           -1.082449924363    -0.421790259210    -1.488009949304    15.994914619560
         F            1.062802919574    -0.023956486458     1.295002973653    18.998403224000
         F           -1.097540296949     0.080594509799     1.276019061556    18.998403224000
         H            0.977178856231     2.910158820172    -1.818849957232     1.007825032070
         C            1.210429673681     1.867745006711    -1.614497179894    12.000000000000
         H            1.400921277045     1.327364042081    -2.544543421282     1.007825032070
         H            2.068481200267     1.802670198536    -0.948289164455     1.007825032070
         O            0.082405440961     1.298677551225    -0.934784006658    15.994914619560
         H           -0.815824867107     0.946670755852    -1.521709556490     1.007825032070
         C           -0.049907967661    -0.505361914600     0.713694707408    12.000000000000
         F           -0.104426112788    -1.814354521104     0.969130055961    18.998403224000
         H            0.966199620589    -0.661243005328    -1.191145669509     1.007825032070

  Nuclear repulsion =  445.257257854319619

  ==> Basis Set <==

  Basis Set: 6-311++G(D,P)
    Blend: 6-311++G(D,P)
    Number of shells: 105
    Number of basis function: 211
    Number of Cartesian functions: 219
    Spherical Harmonics?: true
    Max angular momentum: 2

  ==> DFJKGrad: Density-Fitted SCF Gradients <==

    Gradient:                    1
    J tasked:                  Yes
    K tasked:                  Yes
    wK tasked:                  No
    OpenMP threads:             16
    Integrals threads:          16
    Memory (MB):               375
    Schwarz Cutoff:          0E+00
    Fitting Condition:       1E-12

   => Auxiliary Basis Set <=

  Basis Set: (6-311++G(D,P) AUX)
    Blend: AUG-CC-PVTZ-JKFIT
    Number of shells: 310
    Number of basis function: 1062
    Number of Cartesian functions: 1323
    Spherical Harmonics?: true
    Max angular momentum: 4

  ==> DFT Potential <==

   => Composite Functional: M06-2X <= 

    Hybrid M06-2X Meta-GGA XC Functional

    Y. Zhao and D. G. Truhlar,  Theor. Chem. Acc., 120, 215, 2008


    Deriv               =              1
    GGA                 =           TRUE
    Meta                =           TRUE

    Exchange Hybrid     =           TRUE
    MP2 Hybrid          =          FALSE

   => Exchange Functionals <=

    1.0000   XC_HYB_MGGA_X_M06_2X

   => Exact (HF) Exchange <=

    0.5400               HF 

   => Correlation Functionals <=

    1.0000   XC_MGGA_C_M06_2X

   => Molecular Quadrature <=

    Radial Scheme       =       TREUTLER
    Pruning Scheme      =           FLAT
    Nuclear Scheme      =       TREUTLER

    BS radius alpha     =              1
    Pruning alpha       =              1
    Radial Points       =             75
    Spherical Points    =            302
    Total Points        =         294450
    Total Blocks        =           2260
    Max Points          =            256
    Max Functions       =            197


  -Total Gradient:
     Atom            X                  Y                   Z
    ------   -----------------  -----------------  -----------------
       1        0.000026613949    -0.000055826799     0.000050068585
       2        0.000042878471     0.000023775863    -0.000013128538
       3       -0.000099778100     0.000010954714    -0.000044707384
       4       -0.000161595848     0.000107921848     0.000053142001
       5       -0.000003605579     0.000013651805    -0.000021949967
       6       -0.000006126725     0.000008584818     0.000021214615
       7        0.000023416257     0.000013295680    -0.000004882651
       8        0.000000271761     0.000032633390    -0.000003814110
       9        0.000015234971     0.000076250882    -0.000054555196
      10       -0.000003077916    -0.000062408187    -0.000038827997
      11        0.000265475163     0.000100958061    -0.000009421861
      12        0.000010323821    -0.000088267488     0.000026617908
      13        0.000023062610     0.000034527199    -0.000018528614


*** tstop() called on localhost.localdomain at Thu Jan 17 16:32:08 2019
Module time:
	user time   =      66.06 seconds =       1.10 minutes
	system time =       2.11 seconds =       0.04 minutes
	total time  =          5 seconds =       0.08 minutes
Total time:
	user time   =     324.16 seconds =       5.40 minutes
	system time =      12.22 seconds =       0.20 minutes
	total time  =         24 seconds =       0.40 minutes

  Based on options and gradient (rms=9.73E-05), recommend projecting translations and projecting rotations.
hessian() will perform frequency computation by finite difference of analytic gradients.

-------------------------------------------------------------

  Using finite-differences of gradients to determine vibrational frequencies and 
  normal modes.  Resulting frequencies are only valid at stationary points.
	Generating geometries for use with 3-point formula.
	Displacement size will be 5.00e-03.
	Number of atoms is 13.
	Number of irreps is 1.
	Number of SALCS is 33.
	Translations projected? 1. Rotations projected? 1.
	Index of salcs per irrep:
	 1 :  0  1  2  3  4  5  6  7  8  9  10  11  12  13  14  15  16  17  18  19  20  21  22  23  24  25  26  27  28  29  30  31  32 
	Number of SALC's per irrep:
		 Irrep 1: 33
	Number of geometries (including reference) is 67.
	Number of displacements per irrep:
	  Irrep 1: 66

  //>>>>>>>>>>>>>>>>>>>>>>>>>>>>>>>>>>>//
  //    Loading displacement 1 of 67   //
  //<<<<<<<<<<<<<<<<<<<<<<<<<<<<<<<<<<<//
gradient() will perform analytic gradient computation.

*** tstart() called on localhost.localdomain
*** at Thu Jan 17 16:32:08 2019

   => Loading Basis Set <=

    Name: 6-311++G(D,P)
    Role: ORBITAL
    Keyword: BASIS
    atoms 1, 6, 11       entry C          line   119 file /root/psi4conda/share/psi4/basis/6-311ppg_d_p_.gbs 
    atoms 2, 9           entry O          line   161 file /root/psi4conda/share/psi4/basis/6-311ppg_d_p_.gbs 
    atoms 3-4, 12        entry F          line   182 file /root/psi4conda/share/psi4/basis/6-311ppg_d_p_.gbs 
    atoms 5, 7-8, 10, 13 entry H          line    42 file /root/psi4conda/share/psi4/basis/6-311ppg_d_p_.gbs 


         ---------------------------------------------------------
                                   SCF
            by Justin Turney, Rob Parrish, Andy Simmonett
                             and Daniel Smith
                              RKS Reference
                       16 Threads,    500 MiB Core
         ---------------------------------------------------------

  ==> Geometry <==

    Molecular point group: c1
    Full point group: C1

    Geometry (in Angstrom), charge = 0, multiplicity = 1:

       Center              X                  Y                   Z               Mass       
    ------------   -----------------  -----------------  -----------------  -----------------
         C            0.005984116863    -0.279641515073    -0.800656085934    12.000000000000
         O           -1.082307655919    -0.421826099562    -1.488048072386    15.994914619560
         F            1.062831004792    -0.023922221552     1.295042845771    18.998403224000
         F           -1.097514162833     0.080573686215     1.275977575013    18.998403224000
         H            0.977248693760     2.910173555860    -1.818829635164     1.007825032070
         C            1.210518400763     1.867766817475    -1.614462328280    12.000000000000
         H            1.401058532127     1.327385518927    -2.544498436173     1.007825032070
         H            2.068546673773     1.802717559527    -0.948221867355     1.007825032070
         O            0.082483236578     1.298674440017    -0.934788161557    15.994914619560
         H           -0.815716167208     0.946641513582    -1.521745335249     1.007825032070
         C           -0.049845894880    -0.505359208184     0.713695657143    12.000000000000
         F           -0.104340275777    -1.814351778970     0.969136260787    18.998403224000
         H            0.966336883448    -0.661225051580    -1.191105858545     1.007825032070

  Running in c1 symmetry.

  Rotational constants: A =      0.10403  B =      0.05215  C =      0.04432 [cm^-1]
  Rotational constants: A =   3118.88388  B =   1563.39982  C =   1328.78376 [MHz]
  Nuclear repulsion =  445.264900466247639

  Charge       = 0
  Multiplicity = 1
  Electrons    = 66
  Nalpha       = 33
  Nbeta        = 33

  ==> Algorithm <==

  SCF Algorithm Type is DF.
  DIIS enabled.
  MOM disabled.
  Fractional occupation disabled.
  Guess Type is SAD.
  Energy threshold   = 1.00e-08
  Density threshold  = 1.00e-08
  Integral threshold = 0.00e+00

  ==> Primary Basis <==

  Basis Set: 6-311++G(D,P)
    Blend: 6-311++G(D,P)
    Number of shells: 105
    Number of basis function: 211
    Number of Cartesian functions: 219
    Spherical Harmonics?: true
    Max angular momentum: 2

  ==> DFT Potential <==

   => Composite Functional: M06-2X <= 

    Hybrid M06-2X Meta-GGA XC Functional

    Y. Zhao and D. G. Truhlar,  Theor. Chem. Acc., 120, 215, 2008


    Deriv               =              1
    GGA                 =           TRUE
    Meta                =           TRUE

    Exchange Hybrid     =           TRUE
    MP2 Hybrid          =          FALSE

   => Exchange Functionals <=

    1.0000   XC_HYB_MGGA_X_M06_2X

   => Exact (HF) Exchange <=

    0.5400               HF 

   => Correlation Functionals <=

    1.0000   XC_MGGA_C_M06_2X

   => Molecular Quadrature <=

    Radial Scheme       =       TREUTLER
    Pruning Scheme      =           FLAT
    Nuclear Scheme      =       TREUTLER

    BS radius alpha     =              1
    Pruning alpha       =              1
    Radial Points       =             75
    Spherical Points    =            302
    Total Points        =         294450
    Total Blocks        =           2259
    Max Points          =            256
    Max Functions       =            197

   => Loading Basis Set <=

    Name: (6-311++G(D,P) AUX)
    Role: JKFIT
    Keyword: DF_BASIS_SCF
    atoms 1, 6, 11       entry C          line   162 file /root/psi4conda/share/psi4/basis/aug-cc-pvtz-jkfit.gbs 
    atoms 2, 9           entry O          line   286 file /root/psi4conda/share/psi4/basis/aug-cc-pvtz-jkfit.gbs 
    atoms 3-4, 12        entry F          line   348 file /root/psi4conda/share/psi4/basis/aug-cc-pvtz-jkfit.gbs 
    atoms 5, 7-8, 10, 13 entry H          line    70 file /root/psi4conda/share/psi4/basis/aug-cc-pvtz-jkfit.gbs 

  ==> Pre-Iterations <==

   -------------------------------------------------------
    Irrep   Nso     Nmo     Nalpha   Nbeta   Ndocc  Nsocc
   -------------------------------------------------------
     A        211     211       0       0       0       0
   -------------------------------------------------------
    Total     211     211      33      33      33       0
   -------------------------------------------------------

  ==> Integral Setup <==

  DFHelper Memory: AOs need 0.429 [GiB]; user supplied 0.366 [GiB]. Turning off in-core AOs.

  ==> MemDFJK: Density-Fitted J/K Matrices <==

    J tasked:                   Yes
    K tasked:                   Yes
    wK tasked:                   No
    OpenMP threads:              16
    Memory (MB):                375
    Algorithm:                 Disk
    Schwarz Cutoff:           1E-12
    Mask sparsity (%):       6.6261
    Fitting Condition:        1E-12

   => Auxiliary Basis Set <=

  Basis Set: (6-311++G(D,P) AUX)
    Blend: AUG-CC-PVTZ-JKFIT
    Number of shells: 310
    Number of basis function: 1062
    Number of Cartesian functions: 1323
    Spherical Harmonics?: true
    Max angular momentum: 4

  Minimum eigenvalue in the overlap matrix is 5.7185507954E-05.
  Using Symmetric Orthogonalization.

  SCF Guess: Superposition of Atomic Densities via on-the-fly atomic UHF.

  ==> Iterations <==

                           Total Energy        Delta E     RMS |[F,P]|

   @DF-RKS iter   0:  -569.17780222400256   -5.69178e+02   8.35388e-02 
   @DF-RKS iter   1:  -567.04651798522320    2.13128e+00   1.06966e-02 
   @DF-RKS iter   2:  -567.01233746854268    3.41805e-02   1.37990e-02 DIIS
   @DF-RKS iter   3:  -567.19507466280766   -1.82737e-01   2.13235e-03 DIIS
   @DF-RKS iter   4:  -567.19886931526321   -3.79465e-03   1.03346e-03 DIIS
   @DF-RKS iter   5:  -567.19996551507563   -1.09620e-03   2.63142e-04 DIIS
   @DF-RKS iter   6:  -567.20005763903544   -9.21240e-05   8.84639e-05 DIIS
   @DF-RKS iter   7:  -567.20006670779935   -9.06876e-06   2.45342e-05 DIIS
   @DF-RKS iter   8:  -567.20006747675029   -7.68951e-07   9.77149e-06 DIIS
   @DF-RKS iter   9:  -567.20006759109856   -1.14348e-07   1.86126e-06 DIIS
   @DF-RKS iter  10:  -567.20006759903777   -7.93921e-09   4.88016e-07 DIIS
   @DF-RKS iter  11:  -567.20006759976673   -7.28960e-10   1.74648e-07 DIIS
   @DF-RKS iter  12:  -567.20006759983482   -6.80984e-11   7.14212e-08 DIIS
   @DF-RKS iter  13:  -567.20006759984517   -1.03455e-11   2.35155e-08 DIIS
   @DF-RKS iter  14:  -567.20006759984540   -2.27374e-13   1.38278e-08 DIIS
   @DF-RKS iter  15:  -567.20006759984699   -1.59162e-12   4.14309e-09 DIIS

  ==> Post-Iterations <==

    Orbital Energies [Eh]
    ---------------------

    Doubly Occupied:                                                      

       1A    -25.286150     2A    -25.284321     3A    -25.283476  
       4A    -19.723004     5A    -19.598806     6A    -10.803074  
       7A    -10.688457     8A    -10.634602     9A     -1.479578  
      10A     -1.385848    11A     -1.384747    12A     -1.263008  
      13A     -1.130529    14A     -0.876313    15A     -0.843307  
      16A     -0.768949    17A     -0.705850    18A     -0.703673  
      19A     -0.672993    20A     -0.657076    21A     -0.599982  
      22A     -0.583272    23A     -0.581028    24A     -0.570598  
      25A     -0.546210    26A     -0.538615    27A     -0.520620  
      28A     -0.518956    29A     -0.502979    30A     -0.477277  
      31A     -0.467300    32A     -0.371297    33A     -0.345657  

    Virtual:                                                              

      34A     -0.014589    35A      0.007413    36A      0.015222  
      37A      0.020069    38A      0.037848    39A      0.045686  
      40A      0.055827    41A      0.062212    42A      0.068513  
      43A      0.085376    44A      0.094876    45A      0.101271  
      46A      0.108134    47A      0.113514    48A      0.122997  
      49A      0.125497    50A      0.133567    51A      0.148533  
      52A      0.173314    53A      0.184065    54A      0.192074  
      55A      0.205423    56A      0.219180    57A      0.224875  
      58A      0.234317    59A      0.251054    60A      0.255118  
      61A      0.271303    62A      0.275613    63A      0.279588  
      64A      0.294034    65A      0.303555    66A      0.305109  
      67A      0.316188    68A      0.321242    69A      0.328899  
      70A      0.352910    71A      0.356759    72A      0.361629  
      73A      0.378253    74A      0.379634    75A      0.387265  
      76A      0.402646    77A      0.409412    78A      0.422342  
      79A      0.435655    80A      0.446258    81A      0.457297  
      82A      0.471388    83A      0.496034    84A      0.525082  
      85A      0.545025    86A      0.596882    87A      0.610344  
      88A      0.631063    89A      0.641090    90A      0.660549  
      91A      0.671444    92A      0.690122    93A      0.709263  
      94A      0.736663    95A      0.755247    96A      0.779435  
      97A      0.925684    98A      1.004041    99A      1.027338  
     100A      1.043632   101A      1.047881   102A      1.089666  
     103A      1.143701   104A      1.197563   105A      1.206115  
     106A      1.235267   107A      1.243582   108A      1.298811  
     109A      1.361487   110A      1.381202   111A      1.392425  
     112A      1.427446   113A      1.440931   114A      1.447299  
     115A      1.477185   116A      1.482668   117A      1.486080  
     118A      1.497704   119A      1.510880   120A      1.533301  
     121A      1.535397   122A      1.546437   123A      1.566033  
     124A      1.584542   125A      1.614319   126A      1.633556  
     127A      1.693859   128A      1.711767   129A      1.724434  
     130A      1.754189   131A      1.770673   132A      1.805322  
     133A      1.862373   134A      1.874929   135A      1.923475  
     136A      1.951694   137A      1.980453   138A      2.006539  
     139A      2.026206   140A      2.047557   141A      2.090559  
     142A      2.127337   143A      2.203906   144A      2.220600  
     145A      2.350808   146A      2.437679   147A      2.482440  
     148A      2.513093   149A      2.529147   150A      2.577159  
     151A      2.600317   152A      2.714968   153A      2.754222  
     154A      2.782890   155A      2.892297   156A      2.908130  
     157A      2.951049   158A      2.993135   159A      3.019333  
     160A      3.042592   161A      3.113143   162A      3.155315  
     163A      3.237204   164A      3.351877   165A      3.435765  
     166A      3.523951   167A      3.677878   168A      3.717654  
     169A      3.795257   170A      3.798285   171A      3.821987  
     172A      3.837033   173A      3.843408   174A      3.859456  
     175A      3.866905   176A      3.870224   177A      3.932425  
     178A      3.979051   179A      4.011857   180A      4.033911  
     181A      4.068101   182A      4.133255   183A      4.230628  
     184A      4.291967   185A      4.308510   186A      4.688763  
     187A      4.986470   188A      5.007689   189A      5.208523  
     190A      5.244589   191A      5.300206   192A      5.319658  
     193A      5.628101   194A      5.781303   195A      6.439163  
     196A      6.461942   197A      6.480692   198A      6.506868  
     199A      6.514504   200A      6.540969   201A      6.590423  
     202A      6.883836   203A      6.908123   204A     23.598393  
     205A     23.844813   206A     23.952810   207A     49.958876  
     208A     50.124107   209A     66.884491   210A     66.890202  
     211A     66.945296  

    Final Occupation by Irrep:
              A 
    DOCC [    33 ]

  Energy converged.

  @DF-RKS Final Energy:  -567.20006759984699

   => Energetics <=

    Nuclear Repulsion Energy =            445.2649004662476386
    One-Electron Energy =               -1666.8625926737588543
    Two-Electron Energy =                 686.4292542618479729
    DFT Exchange-Correlation Energy =     -32.0316296541836891
    Empirical Dispersion Energy =           0.0000000000000000
    VV10 Nonlocal Energy =                  0.0000000000000000
    Total Energy =                       -567.2000675998469887



Properties will be evaluated at   0.000000,   0.000000,   0.000000 [a0]

Properties computed using the SCF density matrix

  Nuclear Dipole Moment: [e a0]
     X:     4.4363      Y:     7.5925      Z:   -10.8739

  Electronic Dipole Moment: [e a0]
     X:    -3.0315      Y:    -6.3382      Z:    10.0562

  Dipole Moment: [e a0]
     X:     1.4048      Y:     1.2543      Z:    -0.8177     Total:     2.0531

  Dipole Moment: [D]
     X:     3.5706      Y:     3.1882      Z:    -2.0784     Total:     5.2186


*** tstop() called on localhost.localdomain at Thu Jan 17 16:32:27 2019
Module time:
	user time   =     270.13 seconds =       4.50 minutes
	system time =       9.96 seconds =       0.17 minutes
	total time  =         19 seconds =       0.32 minutes
Total time:
	user time   =     594.53 seconds =       9.91 minutes
	system time =      22.21 seconds =       0.37 minutes
	total time  =         43 seconds =       0.72 minutes

*** tstart() called on localhost.localdomain
*** at Thu Jan 17 16:32:27 2019


         ------------------------------------------------------------
                                   SCF GRAD                          
                          Rob Parrish, Justin Turney,                
                       Andy Simmonett, and Alex Sokolov              
         ------------------------------------------------------------

  ==> Geometry <==

    Molecular point group: c1
    Full point group: C1

    Geometry (in Angstrom), charge = 0, multiplicity = 1:

       Center              X                  Y                   Z               Mass       
    ------------   -----------------  -----------------  -----------------  -----------------
         C            0.005984116863    -0.279641515073    -0.800656085934    12.000000000000
         O           -1.082307655919    -0.421826099562    -1.488048072386    15.994914619560
         F            1.062831004792    -0.023922221552     1.295042845771    18.998403224000
         F           -1.097514162833     0.080573686215     1.275977575013    18.998403224000
         H            0.977248693760     2.910173555860    -1.818829635164     1.007825032070
         C            1.210518400763     1.867766817475    -1.614462328280    12.000000000000
         H            1.401058532127     1.327385518927    -2.544498436173     1.007825032070
         H            2.068546673773     1.802717559527    -0.948221867355     1.007825032070
         O            0.082483236578     1.298674440017    -0.934788161557    15.994914619560
         H           -0.815716167208     0.946641513582    -1.521745335249     1.007825032070
         C           -0.049845894880    -0.505359208184     0.713695657143    12.000000000000
         F           -0.104340275777    -1.814351778970     0.969136260787    18.998403224000
         H            0.966336883448    -0.661225051580    -1.191105858545     1.007825032070

  Nuclear repulsion =  445.264900466247639

  ==> Basis Set <==

  Basis Set: 6-311++G(D,P)
    Blend: 6-311++G(D,P)
    Number of shells: 105
    Number of basis function: 211
    Number of Cartesian functions: 219
    Spherical Harmonics?: true
    Max angular momentum: 2

  ==> DFJKGrad: Density-Fitted SCF Gradients <==

    Gradient:                    1
    J tasked:                  Yes
    K tasked:                  Yes
    wK tasked:                  No
    OpenMP threads:             16
    Integrals threads:          16
    Memory (MB):               375
    Schwarz Cutoff:          0E+00
    Fitting Condition:       1E-12

   => Auxiliary Basis Set <=

  Basis Set: (6-311++G(D,P) AUX)
    Blend: AUG-CC-PVTZ-JKFIT
    Number of shells: 310
    Number of basis function: 1062
    Number of Cartesian functions: 1323
    Spherical Harmonics?: true
    Max angular momentum: 4

  ==> DFT Potential <==

   => Composite Functional: M06-2X <= 

    Hybrid M06-2X Meta-GGA XC Functional

    Y. Zhao and D. G. Truhlar,  Theor. Chem. Acc., 120, 215, 2008


    Deriv               =              1
    GGA                 =           TRUE
    Meta                =           TRUE

    Exchange Hybrid     =           TRUE
    MP2 Hybrid          =          FALSE

   => Exchange Functionals <=

    1.0000   XC_HYB_MGGA_X_M06_2X

   => Exact (HF) Exchange <=

    0.5400               HF 

   => Correlation Functionals <=

    1.0000   XC_MGGA_C_M06_2X

   => Molecular Quadrature <=

    Radial Scheme       =       TREUTLER
    Pruning Scheme      =           FLAT
    Nuclear Scheme      =       TREUTLER

    BS radius alpha     =              1
    Pruning alpha       =              1
    Radial Points       =             75
    Spherical Points    =            302
    Total Points        =         294450
    Total Blocks        =           2259
    Max Points          =            256
    Max Functions       =            197


  -Total Gradient:
     Atom            X                  Y                   Z
    ------   -----------------  -----------------  -----------------
       1       -0.001047424840     0.000178776443    -0.000004168377
       2        0.000538072908     0.000100624351     0.000182916642
       3       -0.000072198967     0.000022983000     0.000024308857
       4       -0.000126239919     0.000094969366    -0.000017017131
       5       -0.000001906321     0.000013227642    -0.000022731767
       6       -0.000001202598     0.000034653137     0.000017753096
       7        0.000020624151     0.000014945759    -0.000006094270
       8        0.000001718983     0.000034977840    -0.000003772326
       9        0.000161106388    -0.000017284819    -0.000020841713
      10       -0.000066300326    -0.000196217581    -0.000043058522
      11        0.000367427192     0.000087008494    -0.000048384441
      12       -0.000000028657    -0.000082515025     0.000024126362
      13        0.000356936451    -0.000071187214    -0.000142240122


*** tstop() called on localhost.localdomain at Thu Jan 17 16:32:31 2019
Module time:
	user time   =      61.94 seconds =       1.03 minutes
	system time =       1.95 seconds =       0.03 minutes
	total time  =          4 seconds =       0.07 minutes
Total time:
	user time   =     656.52 seconds =      10.94 minutes
	system time =      24.17 seconds =       0.40 minutes
	total time  =         47 seconds =       0.78 minutes

  //>>>>>>>>>>>>>>>>>>>>>>>>>>>>>>>>>>>//
  //    Loading displacement 2 of 67   //
  //<<<<<<<<<<<<<<<<<<<<<<<<<<<<<<<<<<<//
gradient() will perform analytic gradient computation.

*** tstart() called on localhost.localdomain
*** at Thu Jan 17 16:32:31 2019

   => Loading Basis Set <=

    Name: 6-311++G(D,P)
    Role: ORBITAL
    Keyword: BASIS
    atoms 1, 6, 11       entry C          line   119 file /root/psi4conda/share/psi4/basis/6-311ppg_d_p_.gbs 
    atoms 2, 9           entry O          line   161 file /root/psi4conda/share/psi4/basis/6-311ppg_d_p_.gbs 
    atoms 3-4, 12        entry F          line   182 file /root/psi4conda/share/psi4/basis/6-311ppg_d_p_.gbs 
    atoms 5, 7-8, 10, 13 entry H          line    42 file /root/psi4conda/share/psi4/basis/6-311ppg_d_p_.gbs 


         ---------------------------------------------------------
                                   SCF
            by Justin Turney, Rob Parrish, Andy Simmonett
                             and Daniel Smith
                              RKS Reference
                       16 Threads,    500 MiB Core
         ---------------------------------------------------------

  ==> Geometry <==

    Molecular point group: c1
    Full point group: C1

    Geometry (in Angstrom), charge = 0, multiplicity = 1:

       Center              X                  Y                   Z               Mass       
    ------------   -----------------  -----------------  -----------------  -----------------
         C            0.007402939783    -0.279632933451    -0.800659702690    12.000000000000
         O           -1.082592192806    -0.421754418858    -1.487971826223    15.994914619560
         F            1.062774834356    -0.023990751364     1.294963101535    18.998403224000
         F           -1.097566431065     0.080615333383     1.276060548099    18.998403224000
         H            0.977109018702     2.910144084484    -1.818870279300     1.007825032070
         C            1.210340946599     1.867723195947    -1.614532031508    12.000000000000
         H            1.400784021963     1.327342565235    -2.544588406391     1.007825032070
         H            2.068415726761     1.802622837545    -0.948356461555     1.007825032070
         O            0.082327645344     1.298680662433    -0.934779851759    15.994914619560
         H           -0.815933567006     0.946699998122    -1.521673777731     1.007825032070
         C           -0.049970040442    -0.505364621016     0.713693757673    12.000000000000
         F           -0.104511949799    -1.814357263238     0.969123851135    18.998403224000
         H            0.966062357731    -0.661260959076    -1.191185480473     1.007825032070

  Running in c1 symmetry.

  Rotational constants: A =      0.10404  B =      0.05215  C =      0.04432 [cm^-1]
  Rotational constants: A =   3118.94063  B =   1563.32219  C =   1328.82770 [MHz]
  Nuclear repulsion =  445.249615672807693

  Charge       = 0
  Multiplicity = 1
  Electrons    = 66
  Nalpha       = 33
  Nbeta        = 33

  ==> Algorithm <==

  SCF Algorithm Type is DF.
  DIIS enabled.
  MOM disabled.
  Fractional occupation disabled.
  Guess Type is SAD.
  Energy threshold   = 1.00e-08
  Density threshold  = 1.00e-08
  Integral threshold = 0.00e+00

  ==> Primary Basis <==

  Basis Set: 6-311++G(D,P)
    Blend: 6-311++G(D,P)
    Number of shells: 105
    Number of basis function: 211
    Number of Cartesian functions: 219
    Spherical Harmonics?: true
    Max angular momentum: 2

  ==> DFT Potential <==

   => Composite Functional: M06-2X <= 

    Hybrid M06-2X Meta-GGA XC Functional

    Y. Zhao and D. G. Truhlar,  Theor. Chem. Acc., 120, 215, 2008


    Deriv               =              1
    GGA                 =           TRUE
    Meta                =           TRUE

    Exchange Hybrid     =           TRUE
    MP2 Hybrid          =          FALSE

   => Exchange Functionals <=

    1.0000   XC_HYB_MGGA_X_M06_2X

   => Exact (HF) Exchange <=

    0.5400               HF 

   => Correlation Functionals <=

    1.0000   XC_MGGA_C_M06_2X

   => Molecular Quadrature <=

    Radial Scheme       =       TREUTLER
    Pruning Scheme      =           FLAT
    Nuclear Scheme      =       TREUTLER

    BS radius alpha     =              1
    Pruning alpha       =              1
    Radial Points       =             75
    Spherical Points    =            302
    Total Points        =         294450
    Total Blocks        =           2260
    Max Points          =            256
    Max Functions       =            197

   => Loading Basis Set <=

    Name: (6-311++G(D,P) AUX)
    Role: JKFIT
    Keyword: DF_BASIS_SCF
    atoms 1, 6, 11       entry C          line   162 file /root/psi4conda/share/psi4/basis/aug-cc-pvtz-jkfit.gbs 
    atoms 2, 9           entry O          line   286 file /root/psi4conda/share/psi4/basis/aug-cc-pvtz-jkfit.gbs 
    atoms 3-4, 12        entry F          line   348 file /root/psi4conda/share/psi4/basis/aug-cc-pvtz-jkfit.gbs 
    atoms 5, 7-8, 10, 13 entry H          line    70 file /root/psi4conda/share/psi4/basis/aug-cc-pvtz-jkfit.gbs 

  ==> Pre-Iterations <==

   -------------------------------------------------------
    Irrep   Nso     Nmo     Nalpha   Nbeta   Ndocc  Nsocc
   -------------------------------------------------------
     A        211     211       0       0       0       0
   -------------------------------------------------------
    Total     211     211      33      33      33       0
   -------------------------------------------------------

  ==> Integral Setup <==

  DFHelper Memory: AOs need 0.429 [GiB]; user supplied 0.366 [GiB]. Turning off in-core AOs.

  ==> MemDFJK: Density-Fitted J/K Matrices <==

    J tasked:                   Yes
    K tasked:                   Yes
    wK tasked:                   No
    OpenMP threads:              16
    Memory (MB):                375
    Algorithm:                 Disk
    Schwarz Cutoff:           1E-12
    Mask sparsity (%):       6.6261
    Fitting Condition:        1E-12

   => Auxiliary Basis Set <=

  Basis Set: (6-311++G(D,P) AUX)
    Blend: AUG-CC-PVTZ-JKFIT
    Number of shells: 310
    Number of basis function: 1062
    Number of Cartesian functions: 1323
    Spherical Harmonics?: true
    Max angular momentum: 4

  Minimum eigenvalue in the overlap matrix is 5.7159306960E-05.
  Using Symmetric Orthogonalization.

  SCF Guess: Superposition of Atomic Densities via on-the-fly atomic UHF.

  ==> Iterations <==

                           Total Energy        Delta E     RMS |[F,P]|

   @DF-RKS iter   0:  -569.03282716022011   -5.69033e+02   8.04774e-02 
   @DF-RKS iter   1:  -566.91816099859625    2.11467e+00   1.50972e-02 
   @DF-RKS iter   2:  -566.73963828243586    1.78523e-01   2.22482e-02 DIIS
   @DF-RKS iter   3:  -567.19293736410020   -4.53299e-01   2.36681e-03 DIIS
   @DF-RKS iter   4:  -567.19779024498712   -4.85288e-03   1.53052e-03 DIIS
   @DF-RKS iter   5:  -567.19993945773138   -2.14921e-03   3.25302e-04 DIIS
   @DF-RKS iter   6:  -567.20005399490344   -1.14537e-04   9.55519e-05 DIIS
   @DF-RKS iter   7:  -567.20006617733895   -1.21824e-05   3.24060e-05 DIIS
   @DF-RKS iter   8:  -567.20006750335779   -1.32602e-06   9.82449e-06 DIIS
   @DF-RKS iter   9:  -567.20006765212156   -1.48764e-07   2.16128e-06 DIIS
   @DF-RKS iter  10:  -567.20006766291976   -1.07982e-08   6.92706e-07 DIIS
   @DF-RKS iter  11:  -567.20006766404288   -1.12311e-09   3.47376e-07 DIIS
   @DF-RKS iter  12:  -567.20006766422182   -1.78943e-10   9.65760e-08 DIIS
   @DF-RKS iter  13:  -567.20006766424297   -2.11458e-11   3.59486e-08 DIIS
   @DF-RKS iter  14:  -567.20006766424535   -2.38742e-12   1.51022e-08 DIIS
   @DF-RKS iter  15:  -567.20006766424592   -5.68434e-13   6.17536e-09 DIIS

  ==> Post-Iterations <==

    Orbital Energies [Eh]
    ---------------------

    Doubly Occupied:                                                      

       1A    -25.286132     2A    -25.284337     3A    -25.283534  
       4A    -19.723118     5A    -19.598641     6A    -10.803137  
       7A    -10.688441     8A    -10.634642     9A     -1.479598  
      10A     -1.385875    11A     -1.384759    12A     -1.262912  
      13A     -1.129927    14A     -0.876334    15A     -0.843317  
      16A     -0.769090    17A     -0.705865    18A     -0.703680  
      19A     -0.673083    20A     -0.657122    21A     -0.600090  
      22A     -0.583280    23A     -0.581040    24A     -0.570656  
      25A     -0.546197    26A     -0.538636    27A     -0.520636  
      28A     -0.518946    29A     -0.502731    30A     -0.477311  
      31A     -0.467264    32A     -0.371076    33A     -0.345607  

    Virtual:                                                              

      34A     -0.014610    35A      0.007395    36A      0.015219  
      37A      0.020045    38A      0.037782    39A      0.045671  
      40A      0.055821    41A      0.062186    42A      0.068504  
      43A      0.085365    44A      0.094886    45A      0.101284  
      46A      0.108160    47A      0.113484    48A      0.123004  
      49A      0.125535    50A      0.133562    51A      0.148554  
      52A      0.173263    53A      0.184073    54A      0.192019  
      55A      0.205419    56A      0.219183    57A      0.224918  
      58A      0.234286    59A      0.250931    60A      0.255044  
      61A      0.271279    62A      0.275559    63A      0.279570  
      64A      0.293968    65A      0.303567    66A      0.305147  
      67A      0.316184    68A      0.321248    69A      0.328895  
      70A      0.352923    71A      0.356799    72A      0.361637  
      73A      0.378230    74A      0.379625    75A      0.387264  
      76A      0.402656    77A      0.409428    78A      0.422320  
      79A      0.435640    80A      0.446181    81A      0.457198  
      82A      0.471315    83A      0.495683    84A      0.525075  
      85A      0.545074    86A      0.596874    87A      0.610386  
      88A      0.630930    89A      0.641087    90A      0.660424  
      91A      0.671373    92A      0.690078    93A      0.709249  
      94A      0.736757    95A      0.755374    96A      0.779270  
      97A      0.925654    98A      1.004003    99A      1.027366  
     100A      1.043542   101A      1.047881   102A      1.089829  
     103A      1.143556   104A      1.197327   105A      1.206242  
     106A      1.235394   107A      1.243725   108A      1.298837  
     109A      1.361479   110A      1.381074   111A      1.392383  
     112A      1.427441   113A      1.440918   114A      1.447329  
     115A      1.477209   116A      1.482702   117A      1.486265  
     118A      1.497684   119A      1.510911   120A      1.533168  
     121A      1.535375   122A      1.546484   123A      1.566112  
     124A      1.584582   125A      1.614457   126A      1.633560  
     127A      1.694019   128A      1.711696   129A      1.724411  
     130A      1.754359   131A      1.770553   132A      1.805228  
     133A      1.862420   134A      1.875020   135A      1.923342  
     136A      1.951617   137A      1.980129   138A      2.006488  
     139A      2.026240   140A      2.047246   141A      2.090784  
     142A      2.127285   143A      2.203906   144A      2.220558  
     145A      2.350934   146A      2.437757   147A      2.484247  
     148A      2.513086   149A      2.529211   150A      2.577088  
     151A      2.600392   152A      2.714923   153A      2.754026  
     154A      2.782496   155A      2.892465   156A      2.907974  
     157A      2.950975   158A      2.992449   159A      3.019322  
     160A      3.042594   161A      3.113126   162A      3.155568  
     163A      3.235731   164A      3.349436   165A      3.434754  
     166A      3.523919   167A      3.678574   168A      3.717735  
     169A      3.795382   170A      3.798276   171A      3.821966  
     172A      3.837018   173A      3.843398   174A      3.859425  
     175A      3.866894   176A      3.870209   177A      3.932785  
     178A      3.978927   179A      4.012013   180A      4.033609  
     181A      4.068158   182A      4.133760   183A      4.230657  
     184A      4.291920   185A      4.308408   186A      4.688669  
     187A      4.986469   188A      5.007668   189A      5.208481  
     190A      5.244532   191A      5.300242   192A      5.319676  
     193A      5.627968   194A      5.780244   195A      6.439157  
     196A      6.461892   197A      6.480663   198A      6.506856  
     199A      6.514505   200A      6.540940   201A      6.590393  
     202A      6.883852   203A      6.908067   204A     23.598294  
     205A     23.844845   206A     23.952765   207A     49.958775  
     208A     50.123776   209A     66.884475   210A     66.890188  
     211A     66.945279  

    Final Occupation by Irrep:
              A 
    DOCC [    33 ]

  Energy converged.

  @DF-RKS Final Energy:  -567.20006766424592

   => Energetics <=

    Nuclear Repulsion Energy =            445.2496156728076926
    One-Electron Energy =               -1666.8332676298859951
    Two-Electron Energy =                 686.4150336362944245
    DFT Exchange-Correlation Energy =     -32.0314493434620573
    Empirical Dispersion Energy =           0.0000000000000000
    VV10 Nonlocal Energy =                  0.0000000000000000
    Total Energy =                       -567.2000676642459212



Properties will be evaluated at   0.000000,   0.000000,   0.000000 [a0]

Properties computed using the SCF density matrix

  Nuclear Dipole Moment: [e a0]
     X:     4.4356      Y:     7.5924      Z:   -10.8741

  Electronic Dipole Moment: [e a0]
     X:    -3.0277      Y:    -6.3375      Z:    10.0572

  Dipole Moment: [e a0]
     X:     1.4079      Y:     1.2549      Z:    -0.8169     Total:     2.0553

  Dipole Moment: [D]
     X:     3.5785      Y:     3.1895      Z:    -2.0763     Total:     5.2240


*** tstop() called on localhost.localdomain at Thu Jan 17 16:32:51 2019
Module time:
	user time   =     277.00 seconds =       4.62 minutes
	system time =      10.37 seconds =       0.17 minutes
	total time  =         20 seconds =       0.33 minutes
Total time:
	user time   =     933.71 seconds =      15.56 minutes
	system time =      34.55 seconds =       0.58 minutes
	total time  =         67 seconds =       1.12 minutes

*** tstart() called on localhost.localdomain
*** at Thu Jan 17 16:32:51 2019


         ------------------------------------------------------------
                                   SCF GRAD                          
                          Rob Parrish, Justin Turney,                
                       Andy Simmonett, and Alex Sokolov              
         ------------------------------------------------------------

  ==> Geometry <==

    Molecular point group: c1
    Full point group: C1

    Geometry (in Angstrom), charge = 0, multiplicity = 1:

       Center              X                  Y                   Z               Mass       
    ------------   -----------------  -----------------  -----------------  -----------------
         C            0.007402939783    -0.279632933451    -0.800659702690    12.000000000000
         O           -1.082592192806    -0.421754418858    -1.487971826223    15.994914619560
         F            1.062774834356    -0.023990751364     1.294963101535    18.998403224000
         F           -1.097566431065     0.080615333383     1.276060548099    18.998403224000
         H            0.977109018702     2.910144084484    -1.818870279300     1.007825032070
         C            1.210340946599     1.867723195947    -1.614532031508    12.000000000000
         H            1.400784021963     1.327342565235    -2.544588406391     1.007825032070
         H            2.068415726761     1.802622837545    -0.948356461555     1.007825032070
         O            0.082327645344     1.298680662433    -0.934779851759    15.994914619560
         H           -0.815933567006     0.946699998122    -1.521673777731     1.007825032070
         C           -0.049970040442    -0.505364621016     0.713693757673    12.000000000000
         F           -0.104511949799    -1.814357263238     0.969123851135    18.998403224000
         H            0.966062357731    -0.661260959076    -1.191185480473     1.007825032070

  Nuclear repulsion =  445.249615672807693

  ==> Basis Set <==

  Basis Set: 6-311++G(D,P)
    Blend: 6-311++G(D,P)
    Number of shells: 105
    Number of basis function: 211
    Number of Cartesian functions: 219
    Spherical Harmonics?: true
    Max angular momentum: 2

  ==> DFJKGrad: Density-Fitted SCF Gradients <==

    Gradient:                    1
    J tasked:                  Yes
    K tasked:                  Yes
    wK tasked:                  No
    OpenMP threads:             16
    Integrals threads:          16
    Memory (MB):               375
    Schwarz Cutoff:          0E+00
    Fitting Condition:       1E-12

   => Auxiliary Basis Set <=

  Basis Set: (6-311++G(D,P) AUX)
    Blend: AUG-CC-PVTZ-JKFIT
    Number of shells: 310
    Number of basis function: 1062
    Number of Cartesian functions: 1323
    Spherical Harmonics?: true
    Max angular momentum: 4

  ==> DFT Potential <==

   => Composite Functional: M06-2X <= 

    Hybrid M06-2X Meta-GGA XC Functional

    Y. Zhao and D. G. Truhlar,  Theor. Chem. Acc., 120, 215, 2008


    Deriv               =              1
    GGA                 =           TRUE
    Meta                =           TRUE

    Exchange Hybrid     =           TRUE
    MP2 Hybrid          =          FALSE

   => Exchange Functionals <=

    1.0000   XC_HYB_MGGA_X_M06_2X

   => Exact (HF) Exchange <=

    0.5400               HF 

   => Correlation Functionals <=

    1.0000   XC_MGGA_C_M06_2X

   => Molecular Quadrature <=

    Radial Scheme       =       TREUTLER
    Pruning Scheme      =           FLAT
    Nuclear Scheme      =       TREUTLER

    BS radius alpha     =              1
    Pruning alpha       =              1
    Radial Points       =             75
    Spherical Points    =            302
    Total Points        =         294450
    Total Blocks        =           2260
    Max Points          =            256
    Max Functions       =            197


  -Total Gradient:
     Atom            X                  Y                   Z
    ------   -----------------  -----------------  -----------------
       1        0.001100301336    -0.000291371064     0.000101766322
       2       -0.000450108972    -0.000052702739    -0.000207619225
       3       -0.000127385204    -0.000001105724    -0.000113809171
       4       -0.000196868566     0.000120815192     0.000123183673
       5       -0.000005299062     0.000014008970    -0.000021154795
       6       -0.000010966004    -0.000017444675     0.000024701029
       7        0.000026200381     0.000011681754    -0.000003629147
       8       -0.000001218617     0.000030291904    -0.000003890746
       9       -0.000130774105     0.000169603607    -0.000088288830
      10        0.000060033534     0.000071279485    -0.000034582294
      11        0.000163483578     0.000115015482     0.000029889298
      12        0.000020677889    -0.000093979334     0.000029074755
      13       -0.000312485649     0.000141066707     0.000106027077


*** tstop() called on localhost.localdomain at Thu Jan 17 16:32:55 2019
Module time:
	user time   =      60.22 seconds =       1.00 minutes
	system time =       1.97 seconds =       0.03 minutes
	total time  =          4 seconds =       0.07 minutes
Total time:
	user time   =     994.00 seconds =      16.57 minutes
	system time =      36.52 seconds =       0.61 minutes
	total time  =         71 seconds =       1.18 minutes

  //>>>>>>>>>>>>>>>>>>>>>>>>>>>>>>>>>>>//
  //    Loading displacement 3 of 67   //
  //<<<<<<<<<<<<<<<<<<<<<<<<<<<<<<<<<<<//
gradient() will perform analytic gradient computation.

*** tstart() called on localhost.localdomain
*** at Thu Jan 17 16:32:55 2019

   => Loading Basis Set <=

    Name: 6-311++G(D,P)
    Role: ORBITAL
    Keyword: BASIS
    atoms 1, 6, 11       entry C          line   119 file /root/psi4conda/share/psi4/basis/6-311ppg_d_p_.gbs 
    atoms 2, 9           entry O          line   161 file /root/psi4conda/share/psi4/basis/6-311ppg_d_p_.gbs 
    atoms 3-4, 12        entry F          line   182 file /root/psi4conda/share/psi4/basis/6-311ppg_d_p_.gbs 
    atoms 5, 7-8, 10, 13 entry H          line    42 file /root/psi4conda/share/psi4/basis/6-311ppg_d_p_.gbs 


         ---------------------------------------------------------
                                   SCF
            by Justin Turney, Rob Parrish, Andy Simmonett
                             and Daniel Smith
                              RKS Reference
                       16 Threads,    500 MiB Core
         ---------------------------------------------------------

  ==> Geometry <==

    Molecular point group: c1
    Full point group: C1

    Geometry (in Angstrom), charge = 0, multiplicity = 1:

       Center              X                  Y                   Z               Mass       
    ------------   -----------------  -----------------  -----------------  -----------------
         C            0.006693528323    -0.280355613841    -0.800664479091    12.000000000000
         O           -1.082458426079    -0.421677813265    -1.488014723743    15.994914619560
         F            1.062808521570    -0.023914466324     1.294997394956    18.998403224000
         F           -1.097534530800     0.080642218526     1.276026131530    18.998403224000
         H            0.977176880188     2.910274019959    -1.818786371968     1.007825032070
         C            1.210426132139     1.867854851417    -1.614459124287    12.000000000000
         H            1.400912033290     1.327495219654    -2.544518928548     1.007825032070
         H            2.068480645811     1.802762348227    -0.948256684544     1.007825032070
         O            0.082403726940     1.298774205149    -0.934753961721    15.994914619560
         H           -0.815830206302     0.946783344365    -1.521683520311     1.007825032070
         C           -0.049906278405    -0.505303570916     0.713683100072    12.000000000000
         F           -0.104426394936    -1.814302031109     0.969088030308    18.998403224000
         H            0.966191939098    -0.661142488875    -1.191165726700     1.007825032070

  Running in c1 symmetry.

  Rotational constants: A =      0.10403  B =      0.05215  C =      0.04432 [cm^-1]
  Rotational constants: A =   3118.70778  B =   1563.35689  C =   1328.80774 [MHz]
  Nuclear repulsion =  445.250561964219628

  Charge       = 0
  Multiplicity = 1
  Electrons    = 66
  Nalpha       = 33
  Nbeta        = 33

  ==> Algorithm <==

  SCF Algorithm Type is DF.
  DIIS enabled.
  MOM disabled.
  Fractional occupation disabled.
  Guess Type is SAD.
  Energy threshold   = 1.00e-08
  Density threshold  = 1.00e-08
  Integral threshold = 0.00e+00

  ==> Primary Basis <==

  Basis Set: 6-311++G(D,P)
    Blend: 6-311++G(D,P)
    Number of shells: 105
    Number of basis function: 211
    Number of Cartesian functions: 219
    Spherical Harmonics?: true
    Max angular momentum: 2

  ==> DFT Potential <==

   => Composite Functional: M06-2X <= 

    Hybrid M06-2X Meta-GGA XC Functional

    Y. Zhao and D. G. Truhlar,  Theor. Chem. Acc., 120, 215, 2008


    Deriv               =              1
    GGA                 =           TRUE
    Meta                =           TRUE

    Exchange Hybrid     =           TRUE
    MP2 Hybrid          =          FALSE

   => Exchange Functionals <=

    1.0000   XC_HYB_MGGA_X_M06_2X

   => Exact (HF) Exchange <=

    0.5400               HF 

   => Correlation Functionals <=

    1.0000   XC_MGGA_C_M06_2X

   => Molecular Quadrature <=

    Radial Scheme       =       TREUTLER
    Pruning Scheme      =           FLAT
    Nuclear Scheme      =       TREUTLER

    BS radius alpha     =              1
    Pruning alpha       =              1
    Radial Points       =             75
    Spherical Points    =            302
    Total Points        =         294450
    Total Blocks        =           2262
    Max Points          =            256
    Max Functions       =            197

   => Loading Basis Set <=

    Name: (6-311++G(D,P) AUX)
    Role: JKFIT
    Keyword: DF_BASIS_SCF
    atoms 1, 6, 11       entry C          line   162 file /root/psi4conda/share/psi4/basis/aug-cc-pvtz-jkfit.gbs 
    atoms 2, 9           entry O          line   286 file /root/psi4conda/share/psi4/basis/aug-cc-pvtz-jkfit.gbs 
    atoms 3-4, 12        entry F          line   348 file /root/psi4conda/share/psi4/basis/aug-cc-pvtz-jkfit.gbs 
    atoms 5, 7-8, 10, 13 entry H          line    70 file /root/psi4conda/share/psi4/basis/aug-cc-pvtz-jkfit.gbs 

  ==> Pre-Iterations <==

   -------------------------------------------------------
    Irrep   Nso     Nmo     Nalpha   Nbeta   Ndocc  Nsocc
   -------------------------------------------------------
     A        211     211       0       0       0       0
   -------------------------------------------------------
    Total     211     211      33      33      33       0
   -------------------------------------------------------

  ==> Integral Setup <==

  DFHelper Memory: AOs need 0.429 [GiB]; user supplied 0.366 [GiB]. Turning off in-core AOs.

  ==> MemDFJK: Density-Fitted J/K Matrices <==

    J tasked:                   Yes
    K tasked:                   Yes
    wK tasked:                   No
    OpenMP threads:              16
    Memory (MB):                375
    Algorithm:                 Disk
    Schwarz Cutoff:           1E-12
    Mask sparsity (%):       6.6261
    Fitting Condition:        1E-12

   => Auxiliary Basis Set <=

  Basis Set: (6-311++G(D,P) AUX)
    Blend: AUG-CC-PVTZ-JKFIT
    Number of shells: 310
    Number of basis function: 1062
    Number of Cartesian functions: 1323
    Spherical Harmonics?: true
    Max angular momentum: 4

  Minimum eigenvalue in the overlap matrix is 5.7144312207E-05.
  Using Symmetric Orthogonalization.

  SCF Guess: Superposition of Atomic Densities via on-the-fly atomic UHF.

  ==> Iterations <==

                           Total Energy        Delta E     RMS |[F,P]|

   @DF-RKS iter   0:  -569.18695097293084   -5.69187e+02   8.08581e-02 
   @DF-RKS iter   1:  -566.96873403412155    2.21822e+00   1.35995e-02 
   @DF-RKS iter   2:  -566.91602314686656    5.27109e-02   1.67458e-02 DIIS
   @DF-RKS iter   3:  -567.19676016538142   -2.80737e-01   1.75952e-03 DIIS
   @DF-RKS iter   4:  -567.19879854432736   -2.03838e-03   1.00344e-03 DIIS
   @DF-RKS iter   5:  -567.19993864898197   -1.14010e-03   3.19655e-04 DIIS
   @DF-RKS iter   6:  -567.20005778027269   -1.19131e-04   8.97685e-05 DIIS
   @DF-RKS iter   7:  -567.20006720213507   -9.42186e-06   2.50914e-05 DIIS
   @DF-RKS iter   8:  -567.20006796309099   -7.60956e-07   1.00450e-05 DIIS
   @DF-RKS iter   9:  -567.20006809267989   -1.29589e-07   1.97082e-06 DIIS
   @DF-RKS iter  10:  -567.20006810055679   -7.87691e-09   6.58908e-07 DIIS
   @DF-RKS iter  11:  -567.20006810148834   -9.31550e-10   2.63281e-07 DIIS
   @DF-RKS iter  12:  -567.20006810161101   -1.22668e-10   9.90102e-08 DIIS
   @DF-RKS iter  13:  -567.20006810162886   -1.78488e-11   3.03536e-08 DIIS
   @DF-RKS iter  14:  -567.20006810163034   -1.47793e-12   8.54064e-09 DIIS

  ==> Post-Iterations <==

    Orbital Energies [Eh]
    ---------------------

    Doubly Occupied:                                                      

       1A    -25.286166     2A    -25.284335     3A    -25.283533  
       4A    -19.722912     5A    -19.598785     6A    -10.803135  
       7A    -10.688462     8A    -10.634552     9A     -1.479610  
      10A     -1.385882    11A     -1.384772    12A     -1.262760  
      13A     -1.130264    14A     -0.876337    15A     -0.843226  
      16A     -0.769047    17A     -0.705877    18A     -0.703700  
      19A     -0.672975    20A     -0.657044    21A     -0.599943  
      22A     -0.583286    23A     -0.581044    24A     -0.570590  
      25A     -0.546235    26A     -0.538636    27A     -0.520647  
      28A     -0.519029    29A     -0.502861    30A     -0.477189  
      31A     -0.467271    32A     -0.371175    33A     -0.345710  

    Virtual:                                                              

      34A     -0.014587    35A      0.007413    36A      0.015224  
      37A      0.020067    38A      0.037752    39A      0.045644  
      40A      0.055818    41A      0.062191    42A      0.068483  
      43A      0.085314    44A      0.094832    45A      0.101284  
      46A      0.108126    47A      0.113505    48A      0.123016  
      49A      0.125503    50A      0.133568    51A      0.148557  
      52A      0.173300    53A      0.184097    54A      0.192052  
      55A      0.205407    56A      0.219233    57A      0.224906  
      58A      0.234269    59A      0.250986    60A      0.255071  
      61A      0.271309    62A      0.275591    63A      0.279612  
      64A      0.293959    65A      0.303561    66A      0.305145  
      67A      0.316202    68A      0.321269    69A      0.328889  
      70A      0.352871    71A      0.356783    72A      0.361630  
      73A      0.378241    74A      0.379621    75A      0.387262  
      76A      0.402647    77A      0.409418    78A      0.422352  
      79A      0.435655    80A      0.446197    81A      0.457284  
      82A      0.471392    83A      0.495846    84A      0.525116  
      85A      0.545096    86A      0.596903    87A      0.610360  
      88A      0.631048    89A      0.641128    90A      0.660539  
      91A      0.671421    92A      0.690116    93A      0.709272  
      94A      0.736779    95A      0.755314    96A      0.779406  
      97A      0.925720    98A      1.004098    99A      1.027310  
     100A      1.043685   101A      1.047986   102A      1.089653  
     103A      1.143582   104A      1.197566   105A      1.206156  
     106A      1.235253   107A      1.243628   108A      1.298781  
     109A      1.361557   110A      1.381141   111A      1.392427  
     112A      1.427445   113A      1.440957   114A      1.447337  
     115A      1.477196   116A      1.482677   117A      1.486020  
     118A      1.497646   119A      1.510913   120A      1.533253  
     121A      1.535426   122A      1.546573   123A      1.566132  
     124A      1.584635   125A      1.614415   126A      1.633391  
     127A      1.694037   128A      1.711769   129A      1.724469  
     130A      1.754293   131A      1.770580   132A      1.805126  
     133A      1.862399   134A      1.875048   135A      1.923386  
     136A      1.951629   137A      1.980215   138A      2.006516  
     139A      2.026143   140A      2.047389   141A      2.090766  
     142A      2.127324   143A      2.203989   144A      2.220636  
     145A      2.351094   146A      2.437788   147A      2.483643  
     148A      2.513093   149A      2.529277   150A      2.577125  
     151A      2.600355   152A      2.714735   153A      2.754034  
     154A      2.782564   155A      2.892404   156A      2.908103  
     157A      2.951061   158A      2.992892   159A      3.019220  
     160A      3.042478   161A      3.113087   162A      3.155487  
     163A      3.236196   164A      3.350850   165A      3.435607  
     166A      3.523735   167A      3.678224   168A      3.717701  
     169A      3.795326   170A      3.798265   171A      3.822030  
     172A      3.837008   173A      3.843375   174A      3.859411  
     175A      3.866917   176A      3.870202   177A      3.932562  
     178A      3.978507   179A      4.011883   180A      4.033772  
     181A      4.068162   182A      4.133368   183A      4.230615  
     184A      4.291952   185A      4.308451   186A      4.688768  
     187A      4.986457   188A      5.007688   189A      5.208226  
     190A      5.244565   191A      5.300158   192A      5.319608  
     193A      5.627881   194A      5.780750   195A      6.439168  
     196A      6.461892   197A      6.480665   198A      6.506836  
     199A      6.514486   200A      6.540925   201A      6.590417  
     202A      6.883836   203A      6.908117   204A     23.598394  
     205A     23.845183   206A     23.952852   207A     49.958961  
     208A     50.123958   209A     66.884471   210A     66.890185  
     211A     66.945275  

    Final Occupation by Irrep:
              A 
    DOCC [    33 ]

  Energy converged.

  @DF-RKS Final Energy:  -567.20006810163034

   => Energetics <=

    Nuclear Repulsion Energy =            445.2505619642196280
    One-Electron Energy =               -1666.8351463311139469
    Two-Electron Energy =                 686.4160398644910401
    DFT Exchange-Correlation Energy =     -32.0315235992269436
    Empirical Dispersion Energy =           0.0000000000000000
    VV10 Nonlocal Energy =                  0.0000000000000000
    Total Energy =                       -567.2000681016303361



Properties will be evaluated at   0.000000,   0.000000,   0.000000 [a0]

Properties computed using the SCF density matrix

  Nuclear Dipole Moment: [e a0]
     X:     4.4359      Y:     7.5928      Z:   -10.8739

  Electronic Dipole Moment: [e a0]
     X:    -3.0301      Y:    -6.3399      Z:    10.0568

  Dipole Moment: [e a0]
     X:     1.4058      Y:     1.2529      Z:    -0.8171     Total:     2.0528

  Dipole Moment: [D]
     X:     3.5732      Y:     3.1847      Z:    -2.0769     Total:     5.2176


*** tstop() called on localhost.localdomain at Thu Jan 17 16:33:14 2019
Module time:
	user time   =     267.74 seconds =       4.46 minutes
	system time =       9.58 seconds =       0.16 minutes
	total time  =         19 seconds =       0.32 minutes
Total time:
	user time   =    1262.27 seconds =      21.04 minutes
	system time =      46.15 seconds =       0.77 minutes
	total time  =         90 seconds =       1.50 minutes

*** tstart() called on localhost.localdomain
*** at Thu Jan 17 16:33:14 2019


         ------------------------------------------------------------
                                   SCF GRAD                          
                          Rob Parrish, Justin Turney,                
                       Andy Simmonett, and Alex Sokolov              
         ------------------------------------------------------------

  ==> Geometry <==

    Molecular point group: c1
    Full point group: C1

    Geometry (in Angstrom), charge = 0, multiplicity = 1:

       Center              X                  Y                   Z               Mass       
    ------------   -----------------  -----------------  -----------------  -----------------
         C            0.006693528323    -0.280355613841    -0.800664479091    12.000000000000
         O           -1.082458426079    -0.421677813265    -1.488014723743    15.994914619560
         F            1.062808521570    -0.023914466324     1.294997394956    18.998403224000
         F           -1.097534530800     0.080642218526     1.276026131530    18.998403224000
         H            0.977176880188     2.910274019959    -1.818786371968     1.007825032070
         C            1.210426132139     1.867854851417    -1.614459124287    12.000000000000
         H            1.400912033290     1.327495219654    -2.544518928548     1.007825032070
         H            2.068480645811     1.802762348227    -0.948256684544     1.007825032070
         O            0.082403726940     1.298774205149    -0.934753961721    15.994914619560
         H           -0.815830206302     0.946783344365    -1.521683520311     1.007825032070
         C           -0.049906278405    -0.505303570916     0.713683100072    12.000000000000
         F           -0.104426394936    -1.814302031109     0.969088030308    18.998403224000
         H            0.966191939098    -0.661142488875    -1.191165726700     1.007825032070

  Nuclear repulsion =  445.250561964219571

  ==> Basis Set <==

  Basis Set: 6-311++G(D,P)
    Blend: 6-311++G(D,P)
    Number of shells: 105
    Number of basis function: 211
    Number of Cartesian functions: 219
    Spherical Harmonics?: true
    Max angular momentum: 2

  ==> DFJKGrad: Density-Fitted SCF Gradients <==

    Gradient:                    1
    J tasked:                  Yes
    K tasked:                  Yes
    wK tasked:                  No
    OpenMP threads:             16
    Integrals threads:          16
    Memory (MB):               375
    Schwarz Cutoff:          0E+00
    Fitting Condition:       1E-12

   => Auxiliary Basis Set <=

  Basis Set: (6-311++G(D,P) AUX)
    Blend: AUG-CC-PVTZ-JKFIT
    Number of shells: 310
    Number of basis function: 1062
    Number of Cartesian functions: 1323
    Spherical Harmonics?: true
    Max angular momentum: 4

  ==> DFT Potential <==

   => Composite Functional: M06-2X <= 

    Hybrid M06-2X Meta-GGA XC Functional

    Y. Zhao and D. G. Truhlar,  Theor. Chem. Acc., 120, 215, 2008


    Deriv               =              1
    GGA                 =           TRUE
    Meta                =           TRUE

    Exchange Hybrid     =           TRUE
    MP2 Hybrid          =          FALSE

[...]

  Vibration                       16                  17                  18          
  Freq [cm^-1]                 537.2064            563.6513            695.3356       
  Irrep                           A                   A                   A           
  Reduced mass [u]             12.1751             12.9160              7.2733        
  Force const [mDyne/A]         2.0702              2.4177              2.0719        
  Turning point v=0 [a0]        0.1357              0.1286              0.1543        
  RMS dev v=0 [a0 u^1/2]        0.3348              0.3268              0.2942        
  Char temp [K]                772.9192            810.9675           1000.4317       
  ----------------------------------------------------------------------------------
      1   C                0.09 -0.03 -0.20   -0.01  0.08 -0.16   -0.15 -0.30  0.24   
      2   O               -0.04  0.08 -0.03   -0.08  0.02 -0.12    0.02  0.12 -0.11   
      3   F               -0.09  0.38  0.17    0.37 -0.06  0.16    0.28  0.15  0.05   
      4   F                0.37 -0.20  0.01   -0.18 -0.36 -0.02   -0.11  0.04 -0.11   
      5   H                0.12 -0.02 -0.05   -0.25 -0.09  0.11    0.10  0.04 -0.03   
      6   C               -0.02 -0.04  0.01   -0.06 -0.06  0.04   -0.04  0.01  0.01   
      7   H                0.02 -0.10  0.05   -0.01 -0.00  0.03   -0.03  0.02 -0.00   
      8   H               -0.08 -0.11  0.09   -0.08  0.04  0.06   -0.02 -0.04 -0.02   
      9   O               -0.08  0.06 -0.04    0.03 -0.22  0.01   -0.05  0.10 -0.04   
     10   H               -0.08  0.06  0.00   -0.03  0.34  0.11    0.16 -0.32 -0.24   
     11   C                0.22 -0.16 -0.08    0.16  0.24 -0.02    0.05 -0.00  0.25   
     12   F               -0.37 -0.15  0.06   -0.18  0.41  0.03   -0.06 -0.16 -0.12   
     13   H                0.04  0.14 -0.49   -0.09 -0.10 -0.19   -0.19 -0.46  0.33   

  Vibration                       19                  20                  21          
  Freq [cm^-1]                 723.9940            778.8593            875.7078       
  Irrep                           A                   A                   A           
  Reduced mass [u]              4.4239              7.2411              5.4325        
  Force const [mDyne/A]         1.3662              2.5881              2.4545        
  Turning point v=0 [a0]        0.1939              0.1461              0.1591        
  RMS dev v=0 [a0 u^1/2]        0.2884              0.2780              0.2622        
  Char temp [K]               1041.6646           1120.6035           1259.9467       
  ----------------------------------------------------------------------------------
      1   C               -0.05 -0.24 -0.08   -0.21  0.39  0.04   -0.21  0.04  0.34   
      2   O               -0.10 -0.18 -0.05   -0.16 -0.29 -0.14    0.03  0.01 -0.04   
      3   F               -0.03 -0.04  0.03    0.12  0.09  0.04   -0.13 -0.05 -0.03   
      4   F                0.03 -0.05  0.03   -0.02  0.04 -0.06    0.24 -0.14 -0.14   
      5   H                0.35  0.11 -0.23   -0.12  0.04 -0.02   -0.18 -0.02  0.07   
      6   C                0.13  0.09 -0.04    0.20  0.10 -0.09    0.00  0.00 -0.00   
      7   H               -0.02 -0.07  0.02    0.04  0.11 -0.11   -0.05  0.07 -0.05   
      8   H                0.20  0.04 -0.13    0.28  0.23 -0.19    0.08  0.10 -0.10   
      9   O                0.02  0.26  0.14    0.08 -0.05  0.14    0.01 -0.03 -0.00   
     10   H               -0.17 -0.59  0.12   -0.06  0.14  0.03    0.32 -0.05 -0.36   
     11   C                0.02  0.06 -0.05    0.01 -0.06  0.07    0.00  0.01 -0.02   
     12   F                0.00  0.12 -0.01   -0.03 -0.17  0.02   -0.01  0.17 -0.01   
     13   H               -0.12 -0.22 -0.21   -0.15  0.51  0.08   -0.15 -0.07  0.60   

  Vibration                       22                  23                  24          
  Freq [cm^-1]                1056.8810           1129.1663           1184.2185       
  Irrep                           A                   A                   A           
  Reduced mass [u]              1.6174              2.4961              1.4026        
  Force const [mDyne/A]         1.0644              1.8751              1.1589        
  Turning point v=0 [a0]        0.2654              0.2067              0.2692        
  RMS dev v=0 [a0 u^1/2]        0.2387              0.2309              0.2255        
  Char temp [K]               1520.6141           1624.6165           1703.8242       
  ----------------------------------------------------------------------------------
      1   C                0.00 -0.01  0.03   -0.04  0.06  0.02   -0.01 -0.06  0.02   
      2   O                0.03  0.03 -0.01   -0.00 -0.06 -0.03   -0.01  0.02 -0.01   
      3   F               -0.00 -0.00 -0.00   -0.01 -0.01 -0.01   -0.01 -0.00 -0.01   
      4   F                0.02 -0.01 -0.01    0.02 -0.01 -0.02   -0.02  0.01  0.01   
      5   H                0.28  0.13 -0.03    0.08  0.01  0.18   -0.30 -0.08  0.36   
      6   C                0.09  0.08 -0.11   -0.18 -0.08  0.03    0.03 -0.09 -0.07   
      7   H                0.29  0.03 -0.03    0.24  0.06  0.03    0.43  0.36 -0.25   
      8   H               -0.18 -0.14  0.22   -0.39 -0.14  0.31   -0.13  0.19  0.16   
      9   O               -0.11 -0.07  0.03    0.19  0.11 -0.08   -0.01  0.03  0.03   
     10   H               -0.48  0.20  0.56   -0.38  0.05  0.56   -0.01 -0.07  0.05   
     11   C               -0.01 -0.00  0.01    0.01  0.06  0.03    0.05 -0.08  0.04   
     12   F                0.00  0.01 -0.00   -0.00 -0.03  0.01   -0.00  0.05 -0.02   
     13   H               -0.02 -0.24  0.19   -0.12 -0.19  0.10    0.14  0.48 -0.15   

  Vibration                       25                  26                  27          
  Freq [cm^-1]                1212.9273           1222.1366           1258.6903       
  Irrep                           A                   A                   A           
  Reduced mass [u]              5.8886              1.9798              1.9929        
  Force const [mDyne/A]         5.1043              1.7422              1.8603        
  Turning point v=0 [a0]        0.1298              0.2231              0.2191        
  RMS dev v=0 [a0 u^1/2]        0.2228              0.2219              0.2187        
  Char temp [K]               1745.1297           1758.3798           1810.9723       
  ----------------------------------------------------------------------------------
      1   C               -0.04  0.03  0.03   -0.01  0.02 -0.04    0.03 -0.04 -0.02   
      2   O                0.04  0.00 -0.03    0.04 -0.00  0.03   -0.06  0.01 -0.01   
      3   F               -0.18 -0.08 -0.12    0.01 -0.01  0.01   -0.01 -0.02 -0.01   
      4   F               -0.08  0.01  0.01    0.02 -0.02 -0.00    0.02 -0.02 -0.01   
      5   H                0.04  0.01 -0.10   -0.49 -0.16  0.28    0.29  0.13  0.03   
      6   C                0.03  0.03  0.02    0.07 -0.09 -0.01   -0.05  0.03 -0.08   
      7   H               -0.13 -0.08  0.06    0.09  0.27 -0.21    0.29 -0.03  0.02   
      8   H                0.14  0.01 -0.12    0.12  0.30 -0.04   -0.30 -0.21  0.22   
      9   O               -0.04 -0.05 -0.01   -0.07  0.05  0.02    0.02 -0.04  0.07   
     10   H               -0.03  0.10  0.02   -0.02  0.05 -0.04    0.33 -0.15 -0.31   
     11   C                0.49  0.19  0.24   -0.03  0.19 -0.09   -0.01  0.22 -0.01   
     12   F               -0.03 -0.05 -0.01   -0.00 -0.09  0.03   -0.00 -0.08  0.02   
     13   H               -0.35 -0.07 -0.62   -0.18 -0.55  0.09    0.32  0.40  0.25   

  Vibration                       28                  29                  30          
  Freq [cm^-1]                1264.3366           1347.8124           1362.7065       
  Irrep                           A                   A                   A           
  Reduced mass [u]              1.3370              5.6131              1.9234        
  Force const [mDyne/A]         1.2592              6.0077              2.1044        
  Turning point v=0 [a0]        0.2669              0.1262              0.2143        
  RMS dev v=0 [a0 u^1/2]        0.2182              0.2113              0.2102        
  Char temp [K]               1819.0960           1939.1990           1960.6283       
  ----------------------------------------------------------------------------------
      1   C                0.01 -0.07 -0.01    0.15  0.04 -0.10    0.16  0.04 -0.03   
      2   O               -0.03  0.01 -0.02   -0.03 -0.02 -0.02   -0.14 -0.02 -0.04   
      3   F               -0.01 -0.01 -0.00   -0.01 -0.01 -0.05   -0.03 -0.01 -0.02   
      4   F                0.02 -0.02 -0.01    0.13 -0.07 -0.09   -0.02  0.01  0.00   
      5   H               -0.14 -0.09 -0.09   -0.11 -0.04  0.03   -0.12 -0.03  0.10   
      6   C                0.04 -0.01  0.07    0.02 -0.02 -0.01    0.01 -0.02 -0.01   
      7   H               -0.26 -0.00  0.00    0.01  0.06 -0.05   -0.06 -0.02 -0.02   
      8   H                0.29  0.16 -0.22   -0.00  0.03  0.03   -0.05  0.03  0.07   
      9   O               -0.00 -0.00 -0.06   -0.02  0.00  0.02   -0.02  0.04  0.01   
     10   H               -0.33  0.09  0.38    0.08  0.12 -0.07    0.16  0.15 -0.12   
     11   C               -0.02  0.08  0.04   -0.31  0.07  0.47    0.09 -0.08  0.07   
     12   F               -0.00 -0.02  0.00    0.02  0.03 -0.04   -0.00  0.03 -0.01   
     13   H                0.35  0.47  0.31   -0.19 -0.16 -0.70    0.31 -0.46  0.72   

  Vibration                       31                  32                  33          
  Freq [cm^-1]                1474.9353           1502.0473           1511.4798       
  Irrep                           A                   A                   A           
  Reduced mass [u]              1.1823              1.0683              1.0560        
  Force const [mDyne/A]         1.5154              1.4201              1.4215        
  Turning point v=0 [a0]        0.2628              0.2739              0.2746        
  RMS dev v=0 [a0 u^1/2]        0.2020              0.2002              0.1996        
  Char temp [K]               2122.1003           2161.1083           2174.6795       
  ----------------------------------------------------------------------------------
      1   C               -0.02  0.02 -0.04   -0.02 -0.00 -0.03    0.02 -0.01  0.03   
      2   O                0.01 -0.00  0.01    0.01  0.00  0.01   -0.01 -0.00 -0.01   
      3   F               -0.00  0.00 -0.00   -0.00  0.00 -0.00    0.00  0.00  0.00   
      4   F                0.00 -0.00 -0.00    0.00 -0.00 -0.00   -0.00 -0.00  0.00   
      5   H                0.57  0.07 -0.12   -0.18  0.09  0.50    0.36  0.16  0.46   
      6   C               -0.08 -0.05  0.03   -0.03  0.03 -0.03    0.01 -0.03 -0.04   
      7   H                0.40  0.31 -0.08    0.38 -0.48  0.35   -0.37 -0.28  0.05   
      8   H                0.28  0.37 -0.38    0.24 -0.13 -0.36   -0.10  0.60  0.17   
      9   O               -0.02 -0.02  0.02   -0.01  0.01 -0.01    0.00 -0.01 -0.01   
     10   H               -0.01  0.04 -0.06   -0.04 -0.02  0.01   -0.00  0.02  0.00   
     11   C                0.00 -0.01  0.02   -0.00 -0.01  0.02   -0.01  0.01 -0.01   
     12   F               -0.00  0.00 -0.00    0.00  0.00 -0.00    0.00 -0.00  0.00   
     13   H                0.02 -0.08  0.14    0.03 -0.00  0.07   -0.02  0.03 -0.09   

  Vibration                       34                  35                  36          
  Freq [cm^-1]                1536.6051           2214.8090           2998.3213       
  Irrep                           A                   A                   A           
  Reduced mass [u]              3.2432              1.0618              1.0861        
  Force const [mDyne/A]         4.5117              3.0687              5.7525        
  Turning point v=0 [a0]        0.1554              0.2263              0.1923        
  RMS dev v=0 [a0 u^1/2]        0.1979              0.1649              0.1417        
  Char temp [K]               2210.8292           3186.6122           4313.9102       
  ----------------------------------------------------------------------------------
      1   C                0.24 -0.02  0.28   -0.00  0.04 -0.01   -0.07  0.03  0.03   
      2   O               -0.13 -0.02 -0.11   -0.01  0.01 -0.01   -0.00 -0.00 -0.00   
      3   F                0.01  0.00  0.01   -0.00 -0.00 -0.00    0.00  0.00  0.00   
      4   F               -0.01  0.00  0.02    0.00 -0.00 -0.00    0.00 -0.00 -0.00   
      5   H                0.04 -0.00 -0.01    0.01 -0.01  0.01    0.00 -0.00 -0.00   
      6   C               -0.04 -0.01  0.03    0.00 -0.00  0.01    0.00 -0.00 -0.00   
      7   H                0.35  0.04  0.07    0.00  0.01  0.01   -0.00  0.01  0.02   
      8   H                0.24 -0.04 -0.33    0.03  0.02 -0.03   -0.01  0.00 -0.01   
      9   O               -0.03  0.01 -0.03   -0.03 -0.01 -0.03    0.00  0.00  0.00   
     10   H                0.05  0.33  0.15    0.64 -0.42  0.63   -0.01 -0.02  0.01   
     11   C               -0.03  0.05 -0.13   -0.00 -0.00  0.00   -0.00  0.00 -0.00   
     12   F                0.00 -0.02  0.01   -0.00 -0.00  0.00    0.00 -0.00  0.00   
     13   H               -0.16  0.01 -0.60   -0.03 -0.02  0.01    0.86 -0.34 -0.38   

  Vibration                       37                  38                  39          
  Freq [cm^-1]                3078.0891           3170.5745           3197.3841       
  Irrep                           A                   A                   A           
  Reduced mass [u]              1.0336              1.1030              1.1085        
  Force const [mDyne/A]         5.7700              6.5325              6.6768        
  Turning point v=0 [a0]        0.1945              0.1856              0.1843        
  RMS dev v=0 [a0 u^1/2]        0.1398              0.1378              0.1372        
  Char temp [K]               4428.6781           4561.7439           4600.3168       
  ----------------------------------------------------------------------------------
      1   C                0.00 -0.00 -0.00    0.00  0.00 -0.00    0.00 -0.00 -0.00   
      2   O                0.00  0.00  0.00    0.00  0.00  0.00   -0.00 -0.00  0.00   
      3   F               -0.00  0.00 -0.00    0.00  0.00  0.00   -0.00 -0.00 -0.00   
      4   F               -0.00  0.00  0.00   -0.00  0.00  0.00   -0.00  0.00  0.00   
      5   H                0.09 -0.41  0.07   -0.11  0.45 -0.10   -0.17  0.74 -0.13   
      6   C                0.03 -0.00 -0.04   -0.02 -0.06 -0.07    0.06 -0.07  0.04   
      7   H               -0.13  0.39  0.66   -0.10  0.31  0.52    0.00  0.01  0.04   
      8   H               -0.36  0.02 -0.29    0.49 -0.05  0.38   -0.49  0.03 -0.40   
      9   O                0.00  0.00 -0.00   -0.00 -0.00  0.00   -0.00  0.00 -0.00   
     10   H               -0.01 -0.00 -0.01    0.00  0.00 -0.00   -0.00 -0.00  0.00   
     11   C                0.00 -0.00  0.00   -0.00 -0.00 -0.00    0.00  0.00  0.00   
     12   F               -0.00  0.00 -0.00    0.00  0.00  0.00   -0.00  0.00 -0.00   
     13   H               -0.02  0.01  0.01   -0.00  0.00  0.00   -0.01  0.00  0.00   

  ==> Thermochemistry Components <==

  Entropy, S
    Electronic S            0.000 [cal/(mol K)]        0.000 [J/(mol K)]       0.00000000 [mEh/K] (multiplicity = 1)
    Translational S        40.501 [cal/(mol K)]      169.455 [J/(mol K)]       0.06454191 [mEh/K] (mol. weight = 130.0242 [u], P = 101325.00 [Pa])
    Rotational S           28.297 [cal/(mol K)]      118.394 [J/(mol K)]       0.04509395 [mEh/K] (symmetry no. = 1)
    Vibrational S          19.739 [cal/(mol K)]       82.586 [J/(mol K)]       0.03145531 [mEh/K]
  Total S                  88.536 [cal/(mol K)]      370.435 [J/(mol K)]       0.14109117 [mEh/K]
  Correction S              0.000 [cal/(mol K)]        0.000 [J/(mol K)]       0.00000000 [mEh/K]

  Constant volume heat capacity, Cv
    Electronic Cv           0.000 [cal/(mol K)]        0.000 [J/(mol K)]       0.00000000 [mEh/K]
    Translational Cv        2.981 [cal/(mol K)]       12.472 [J/(mol K)]       0.00475022 [mEh/K]
    Rotational Cv           2.981 [cal/(mol K)]       12.472 [J/(mol K)]       0.00475022 [mEh/K]
    Vibrational Cv         21.229 [cal/(mol K)]       88.822 [J/(mol K)]       0.03383039 [mEh/K]
  Total Cv                 27.191 [cal/(mol K)]      113.765 [J/(mol K)]       0.04333083 [mEh/K]
  Correction Cv             0.000 [cal/(mol K)]        0.000 [J/(mol K)]       0.00000000 [mEh/K]

  Constant pressure heat capacity, Cp
    Electronic Cp           0.000 [cal/(mol K)]        0.000 [J/(mol K)]       0.00000000 [mEh/K]
    Translational Cp        4.968 [cal/(mol K)]       20.786 [J/(mol K)]       0.00791704 [mEh/K]
    Rotational Cp           2.981 [cal/(mol K)]       12.472 [J/(mol K)]       0.00475022 [mEh/K]
    Vibrational Cp         21.229 [cal/(mol K)]       88.822 [J/(mol K)]       0.03383039 [mEh/K]
  Total Cp                 29.178 [cal/(mol K)]      122.080 [J/(mol K)]       0.04649765 [mEh/K]
  Correction Cp             0.000 [cal/(mol K)]        0.000 [J/(mol K)]       0.00000000 [mEh/K]

  ==> Thermochemistry Energy Analysis <==

  Raw electronic energy, E0
  Total E0, Electronic energy at well bottom at 0 [K]                 -567.20006846 [Eh]

  Zero-point energy, ZPE_vib = Sum_i nu_i / 2
    Electronic ZPE          0.000 [kcal/mol]        0.000 [kJ/mol]       0.00000000 [Eh]
    Translational ZPE       0.000 [kcal/mol]        0.000 [kJ/mol]       0.00000000 [Eh]
    Rotational ZPE          0.000 [kcal/mol]        0.000 [kJ/mol]       0.00000000 [Eh]
    Vibrational ZPE        54.002 [kcal/mol]      225.943 [kJ/mol]       0.08605713 [Eh]       18887.354 [cm^-1]
  Correction ZPE           54.002 [kcal/mol]      225.943 [kJ/mol]       0.08605713 [Eh]       18887.354 [cm^-1]
  Total ZPE, Electronic energy at 0 [K]                               -567.11401134 [Eh]

  Thermal Energy, E (includes ZPE)
    Electronic E            0.000 [kcal/mol]        0.000 [kJ/mol]       0.00000000 [Eh]
    Translational E         0.889 [kcal/mol]        3.718 [kJ/mol]       0.00141628 [Eh]
    Rotational E            0.889 [kcal/mol]        3.718 [kJ/mol]       0.00141628 [Eh]
    Vibrational E          57.226 [kcal/mol]      239.433 [kJ/mol]       0.09119531 [Eh]
  Correction E             59.003 [kcal/mol]      246.870 [kJ/mol]       0.09402786 [Eh]
  Total E, Electronic energy at  298.15 [K]                           -567.10604060 [Eh]

  Enthalpy, H_trans = E_trans + k_B * T
    Electronic H            0.000 [kcal/mol]        0.000 [kJ/mol]       0.00000000 [Eh]
    Translational H         1.481 [kcal/mol]        6.197 [kJ/mol]       0.00236046 [Eh]
    Rotational H            0.889 [kcal/mol]        3.718 [kJ/mol]       0.00141628 [Eh]
    Vibrational H          57.226 [kcal/mol]      239.433 [kJ/mol]       0.09119531 [Eh]
  Correction H             59.596 [kcal/mol]      249.349 [kJ/mol]       0.09497205 [Eh]
  Total H, Enthalpy at  298.15 [K]                                    -567.10509642 [Eh]

  Gibbs free energy, G = H - T * S
    Electronic G            0.000 [kcal/mol]        0.000 [kJ/mol]       0.00000000 [Eh]
    Translational G       -10.594 [kcal/mol]      -44.326 [kJ/mol]      -0.01688271 [Eh]
    Rotational G           -7.548 [kcal/mol]      -31.581 [kJ/mol]      -0.01202848 [Eh]
    Vibrational G          51.341 [kcal/mol]      214.810 [kJ/mol]       0.08181691 [Eh]
  Correction G             33.199 [kcal/mol]      138.904 [kJ/mol]       0.05290572 [Eh]
  Total G, Free enthalpy at  298.15 [K]                               -567.14716275 [Eh]

    Psi4 stopped on: Thursday, 17 January 2019 05:00PM
    Psi4 wall time for execution: 0:28:35.91

*** Psi4 exiting successfully. Buy a developer a beer!
