
    -----------------------------------------------------------------------
          Psi4: An Open-Source Ab Initio Electronic Structure Package
                               Psi4 1.2.1 release

                         Git: Rev {HEAD} 406f4de 


    R. M. Parrish, L. A. Burns, D. G. A. Smith, A. C. Simmonett,
    A. E. DePrince III, E. G. Hohenstein, U. Bozkaya, A. Yu. Sokolov,
    R. Di Remigio, R. M. Richard, J. F. Gonthier, A. M. James,
    H. R. McAlexander, A. Kumar, M. Saitow, X. Wang, B. P. Pritchard,
    P. Verma, H. F. Schaefer III, K. Patkowski, R. A. King, E. F. Valeev,
    F. A. Evangelista, J. M. Turney, T. D. Crawford, and C. D. Sherrill,
    J. Chem. Theory Comput. 13(7) pp 3185--3197 (2017).
    (doi: 10.1021/acs.jctc.7b00174)


                         Additional Contributions by
    P. Kraus, H. Kruse, M. H. Lechner, M. C. Schieber, and R. A. Shaw

    -----------------------------------------------------------------------


    Psi4 started on: Tuesday, 26 March 2019 10:28AM

    Process ID: 18615
    Host:       localhost.localdomain
    PSIDATADIR: /root/psi4conda/share/psi4
    Memory:     500.0 MiB
    Threads:    1
    
  ==> Input File <==

--------------------------------------------------------------------------
molecule{
0 1
    C            0.230223016669    -0.361073813614     0.034916906978
    O           -1.152258456006    -0.154071239465     0.075175394608
    O            1.048229023912     0.530856179754    -0.061057027549
    H            0.493185194724    -1.419201899633     0.174977883284
    H           -1.583388633620    -0.261404487986    -0.814796243518 
}

set{
   basis 3-21G
   freeze_core True
   reference uhf
   full_hess_every 0
   normal_modes_write True
}


set_num_threads(1)
frequencies('b3lyp')
--------------------------------------------------------------------------
  Threads set to 1 by Python driver.
gradient() will perform analytic gradient computation.

*** tstart() called on localhost.localdomain
*** at Tue Mar 26 10:28:16 2019

   => Loading Basis Set <=

    Name: 3-21G
    Role: ORBITAL
    Keyword: BASIS
    atoms 1   entry C          line    68 file /root/psi4conda/share/psi4/basis/3-21g.gbs 
    atoms 2-3 entry O          line    90 file /root/psi4conda/share/psi4/basis/3-21g.gbs 
    atoms 4-5 entry H          line    21 file /root/psi4conda/share/psi4/basis/3-21g.gbs 


         ---------------------------------------------------------
                                   SCF
            by Justin Turney, Rob Parrish, Andy Simmonett
                             and Daniel Smith
                              UKS Reference
                        1 Threads,    500 MiB Core
         ---------------------------------------------------------

  ==> Geometry <==

    Molecular point group: c1
    Full point group: C1

    Geometry (in Angstrom), charge = 0, multiplicity = 1:

       Center              X                  Y                   Z               Mass       
    ------------   -----------------  -----------------  -----------------  -----------------
         C            0.230223016669    -0.361073813614     0.034916906978    12.000000000000
         O           -1.152258456006    -0.154071239465     0.075175394608    15.994914619560
         O            1.048229023912     0.530856179754    -0.061057027549    15.994914619560
         H            0.493185194724    -1.419201899633     0.174977883284     1.007825032070
         H           -1.583388633620    -0.261404487986    -0.814796243518     1.007825032070

  Running in c1 symmetry.

  Rotational constants: A =      2.63234  B =      0.36655  C =      0.33136 [cm^-1]
  Rotational constants: A =  78915.62480  B =  10988.78687  C =   9933.89453 [MHz]
  Nuclear repulsion =   68.285093831266209

  Charge       = 0
  Multiplicity = 1
  Electrons    = 24
  Nalpha       = 12
  Nbeta        = 12

  ==> Algorithm <==

  SCF Algorithm Type is DF.
  DIIS enabled.
  MOM disabled.
  Fractional occupation disabled.
  Guess Type is GWH.
  Energy threshold   = 1.00e-08
  Density threshold  = 1.00e-08
  Integral threshold = 0.00e+00

  ==> Primary Basis <==

  Basis Set: 3-21G
    Blend: 3-21G
    Number of shells: 19
    Number of basis function: 31
    Number of Cartesian functions: 31
    Spherical Harmonics?: false
    Max angular momentum: 1

  ==> DFT Potential <==

   => Composite Functional: B3LYP <= 

    B3LYP Hyb-GGA Exchange-Correlation Functional

    P. J. Stephens, F. J. Devlin, C. F. Chabalowski, and M. J. Frisch, J. Phys. Chem. 98, 11623 (1994)

    Deriv               =              1
    GGA                 =           TRUE
    Meta                =          FALSE

    Exchange Hybrid     =           TRUE
    MP2 Hybrid          =          FALSE

   => Exchange Functionals <=

    0.0800   Slater exchange
    0.7200         Becke 88

   => Exact (HF) Exchange <=

    0.2000               HF 

   => Correlation Functionals <=

    0.1900   Vosko, Wilk & Nusair (VWN5_RPA)
    0.8100   Lee, Yang & Parr

   => Molecular Quadrature <=

    Radial Scheme       =       TREUTLER
    Pruning Scheme      =           FLAT
    Nuclear Scheme      =       TREUTLER

    BS radius alpha     =              1
    Pruning alpha       =              1
    Radial Points       =             75
    Spherical Points    =            302
    Total Points        =         107804
    Total Blocks        =            869
    Max Points          =            255
    Max Functions       =             30

   => Loading Basis Set <=

    Name: (3-21G AUX)
    Role: JKFIT
    Keyword: DF_BASIS_SCF
    atoms 1   entry C          line   203 file /root/psi4conda/share/psi4/basis/def2-svp-jkfit.gbs 
    atoms 2-3 entry O          line   323 file /root/psi4conda/share/psi4/basis/def2-svp-jkfit.gbs 
    atoms 4-5 entry H          line    23 file /root/psi4conda/share/psi4/basis/def2-svp-jkfit.gbs 

  ==> Pre-Iterations <==

   -------------------------------------------------------
    Irrep   Nso     Nmo     Nalpha   Nbeta   Ndocc  Nsocc
   -------------------------------------------------------
     A         31      31       0       0       0       0
   -------------------------------------------------------
    Total      31      31      12      12      12       0
   -------------------------------------------------------

  ==> Integral Setup <==

  ==> DiskDFJK: Density-Fitted J/K Matrices <==

    J tasked:                  Yes
    K tasked:                  Yes
    wK tasked:                  No
    OpenMP threads:              1
    Integrals threads:           1
    Memory (MB):               375
    Algorithm:                Core
    Integral Cache:           NONE
    Schwarz Cutoff:          1E-12
    Fitting Condition:       1E-12

   => Auxiliary Basis Set <=

  Basis Set: (3-21G AUX)
    Blend: DEF2-SVP-JKFIT
    Number of shells: 87
    Number of basis function: 315
    Number of Cartesian functions: 315
    Spherical Harmonics?: false
    Max angular momentum: 4

  Minimum eigenvalue in the overlap matrix is 4.1230234869E-02.
  Using Symmetric Orthogonalization.

  SCF Guess: Generalized Wolfsberg-Helmholtz.

  ==> Iterations <==

                           Total Energy        Delta E     RMS |[F,P]|

   @DF-UKS iter   1:  -185.84861133408003   -1.85849e+02   1.06280e-01 
   @DF-UKS iter   2:  -183.43442608930758    2.41419e+00   9.61603e-02 DIIS
   @DF-UKS iter   3:  -187.86697932018004   -4.43255e+00   4.48186e-02 DIIS
   @DF-UKS iter   4:  -188.58070222610178   -7.13723e-01   1.63659e-02 DIIS
   @DF-UKS iter   5:  -188.64769096776644   -6.69887e-02   8.48649e-03 DIIS
   @DF-UKS iter   6:  -188.67239310719424   -2.47021e-02   2.23984e-03 DIIS
   @DF-UKS iter   7:  -188.67462510760760   -2.23200e-03   2.55047e-04 DIIS
   @DF-UKS iter   8:  -188.67465321280685   -2.81052e-05   4.67912e-05 DIIS
   @DF-UKS iter   9:  -188.67465391701026   -7.04203e-07   1.66849e-05 DIIS
   @DF-UKS iter  10:  -188.67465402662447   -1.09614e-07   3.52183e-07 DIIS
   @DF-UKS iter  11:  -188.67465402667338   -4.89138e-11   9.31840e-08 DIIS
   @DF-UKS iter  12:  -188.67465402667671   -3.32534e-12   1.77964e-08 DIIS
   @DF-UKS iter  13:  -188.67465402667705   -3.41061e-13   5.82541e-10 DIIS

  ==> Post-Iterations <==

   @Spin Contamination Metric:   1.421085472E-14
   @S^2 Expected:                0.000000000E+00
   @S^2 Observed:                1.421085472E-14
   @S   Expected:                0.000000000E+00
   @S   Observed:                0.000000000E+00

    Orbital Energies [Eh]
    ---------------------

    Alpha Occupied:                                                       

       1A    -19.066568     2A    -19.056945     3A    -10.269459  
       4A     -1.099990     5A     -1.026677     6A     -0.638097  
       7A     -0.547346     8A     -0.456297     9A     -0.435920  
      10A     -0.352378    11A     -0.305570    12A     -0.280795  

    Alpha Virtual:                                                        

      13A     -0.023289    14A      0.075365    15A      0.147479  
      16A      0.278401    17A      0.331782    18A      0.675092  
      19A      0.717149    20A      0.801322    21A      0.881762  
      22A      0.952910    23A      1.235468    24A      1.462005  
      25A      1.519724    26A      1.568260    27A      1.583441  
      28A      1.638542    29A      1.725673    30A      2.915031  
      31A      3.068558  

    Beta Occupied:                                                        

       1A    -19.066568     2A    -19.056945     3A    -10.269459  
       4A     -1.099990     5A     -1.026677     6A     -0.638097  
       7A     -0.547346     8A     -0.456297     9A     -0.435920  
      10A     -0.352378    11A     -0.305570    12A     -0.280795  

    Beta Virtual:                                                         

      13A     -0.023289    14A      0.075365    15A      0.147479  
      16A      0.278401    17A      0.331782    18A      0.675092  
      19A      0.717149    20A      0.801322    21A      0.881762  
      22A      0.952910    23A      1.235468    24A      1.462005  
      25A      1.519724    26A      1.568260    27A      1.583441  
      28A      1.638542    29A      1.725673    30A      2.915031  
      31A      3.068558  

    Final Occupation by Irrep:
              A 
    DOCC [    12 ]
    SOCC [     0 ]

  Energy converged.

  @DF-UKS Final Energy:  -188.67465402667705

   => Energetics <=

    Nuclear Repulsion Energy =             68.2850938312662095
    One-Electron Energy =                -393.3525095974853798
    Two-Electron Energy =                 155.1826690330513827
    DFT Exchange-Correlation Energy =     -18.7899072935092413
    Empirical Dispersion Energy =           0.0000000000000000
    VV10 Nonlocal Energy =                  0.0000000000000000
    Total Energy =                       -188.6746540266769898


  UHF NO Occupations:
  HONO-2 :   10  A 2.0000000
  HONO-1 :   11  A 2.0000000
  HONO-0 :   12  A 2.0000000
  LUNO+0 :   13  A 0.0000000
  LUNO+1 :   14  A 0.0000000
  LUNO+2 :   15  A 0.0000000
  LUNO+3 :   16  A 0.0000000



Properties will be evaluated at   0.000000,   0.000000,   0.000000 [a0]

Properties computed using the SCF density matrix

  Nuclear Dipole Moment: [e a0]
     X:    -1.0225      Y:    -1.5737      Z:    -0.5997

  Electronic Dipole Moment: [e a0]
     X:     0.5077      Y:     0.7774      Z:    -0.0257

  Dipole Moment: [e a0]
     X:    -0.5149      Y:    -0.7963      Z:    -0.6254     Total:     1.1360

  Dipole Moment: [D]
     X:    -1.3087      Y:    -2.0241      Z:    -1.5897     Total:     2.8873


*** tstop() called on localhost.localdomain at Tue Mar 26 10:28:21 2019
Module time:
	user time   =       4.06 seconds =       0.07 minutes
	system time =       0.11 seconds =       0.00 minutes
	total time  =          5 seconds =       0.08 minutes
Total time:
	user time   =       4.06 seconds =       0.07 minutes
	system time =       0.11 seconds =       0.00 minutes
	total time  =          5 seconds =       0.08 minutes

*** tstart() called on localhost.localdomain
*** at Tue Mar 26 10:28:21 2019


         ------------------------------------------------------------
                                   SCF GRAD                          
                          Rob Parrish, Justin Turney,                
                       Andy Simmonett, and Alex Sokolov              
         ------------------------------------------------------------

  ==> Geometry <==

    Molecular point group: c1
    Full point group: C1

    Geometry (in Angstrom), charge = 0, multiplicity = 1:

       Center              X                  Y                   Z               Mass       
    ------------   -----------------  -----------------  -----------------  -----------------
         C            0.230223016669    -0.361073813614     0.034916906978    12.000000000000
         O           -1.152258456006    -0.154071239465     0.075175394608    15.994914619560
         O            1.048229023912     0.530856179754    -0.061057027549    15.994914619560
         H            0.493185194724    -1.419201899633     0.174977883284     1.007825032070
         H           -1.583388633620    -0.261404487986    -0.814796243518     1.007825032070

  Nuclear repulsion =   68.285093831266209

  ==> Basis Set <==

  Basis Set: 3-21G
    Blend: 3-21G
    Number of shells: 19
    Number of basis function: 31
    Number of Cartesian functions: 31
    Spherical Harmonics?: false
    Max angular momentum: 1

  ==> DFJKGrad: Density-Fitted SCF Gradients <==

    Gradient:                    1
    J tasked:                  Yes
    K tasked:                  Yes
    wK tasked:                  No
    OpenMP threads:              1
    Integrals threads:           1
    Memory (MB):               375
    Schwarz Cutoff:          0E+00
    Fitting Condition:       1E-12

   => Auxiliary Basis Set <=

  Basis Set: (3-21G AUX)
    Blend: DEF2-SVP-JKFIT
    Number of shells: 87
    Number of basis function: 315
    Number of Cartesian functions: 315
    Spherical Harmonics?: false
    Max angular momentum: 4

  ==> DFT Potential <==

   => Composite Functional: B3LYP <= 

    B3LYP Hyb-GGA Exchange-Correlation Functional

    P. J. Stephens, F. J. Devlin, C. F. Chabalowski, and M. J. Frisch, J. Phys. Chem. 98, 11623 (1994)

    Deriv               =              1
    GGA                 =           TRUE
    Meta                =          FALSE

    Exchange Hybrid     =           TRUE
    MP2 Hybrid          =          FALSE

   => Exchange Functionals <=

    0.0800   Slater exchange
    0.7200         Becke 88

   => Exact (HF) Exchange <=

    0.2000               HF 

   => Correlation Functionals <=

    0.1900   Vosko, Wilk & Nusair (VWN5_RPA)
    0.8100   Lee, Yang & Parr

   => Molecular Quadrature <=

    Radial Scheme       =       TREUTLER
    Pruning Scheme      =           FLAT
    Nuclear Scheme      =       TREUTLER

    BS radius alpha     =              1
    Pruning alpha       =              1
    Radial Points       =             75
    Spherical Points    =            302
    Total Points        =         107804
    Total Blocks        =            869
    Max Points          =            255
    Max Functions       =             30


  -Total Gradient:
     Atom            X                  Y                   Z
    ------   -----------------  -----------------  -----------------
       1       -0.000329481692    -0.000012000711     0.000178319334
       2        0.000157673069     0.000014601273     0.000029003815
       3        0.000167125224     0.000040239215    -0.000048293951
       4        0.000050523758    -0.000010174599    -0.000078751123
       5       -0.000033630895    -0.000045243944    -0.000088981975


*** tstop() called on localhost.localdomain at Tue Mar 26 10:28:21 2019
Module time:
	user time   =       0.72 seconds =       0.01 minutes
	system time =       0.02 seconds =       0.00 minutes
	total time  =          0 seconds =       0.00 minutes
Total time:
	user time   =       4.78 seconds =       0.08 minutes
	system time =       0.13 seconds =       0.00 minutes
	total time  =          5 seconds =       0.08 minutes

  Based on options and gradient (rms=1.21E-04), recommend projecting translations and projecting rotations.
hessian() will perform frequency computation by finite difference of analytic gradients.

-------------------------------------------------------------

  Using finite-differences of gradients to determine vibrational frequencies and 
  normal modes.  Resulting frequencies are only valid at stationary points.
	Generating geometries for use with 3-point formula.
	Displacement size will be 5.00e-03.
	Number of atoms is 5.
	Number of irreps is 1.
	Number of SALCS is 9.
	Translations projected? 1. Rotations projected? 1.
	Index of salcs per irrep:
	 1 :  0  1  2  3  4  5  6  7  8 
	Number of SALC's per irrep:
		 Irrep 1: 9
	Number of geometries (including reference) is 19.
	Number of displacements per irrep:
	  Irrep 1: 18

  //>>>>>>>>>>>>>>>>>>>>>>>>>>>>>>>>>>>//
  //    Loading displacement 1 of 19   //
  //<<<<<<<<<<<<<<<<<<<<<<<<<<<<<<<<<<<//
gradient() will perform analytic gradient computation.

*** tstart() called on localhost.localdomain
*** at Tue Mar 26 10:28:21 2019

   => Loading Basis Set <=

    Name: 3-21G
    Role: ORBITAL
    Keyword: BASIS
    atoms 1   entry C          line    68 file /root/psi4conda/share/psi4/basis/3-21g.gbs 
    atoms 2-3 entry O          line    90 file /root/psi4conda/share/psi4/basis/3-21g.gbs 
    atoms 4-5 entry H          line    21 file /root/psi4conda/share/psi4/basis/3-21g.gbs 


         ---------------------------------------------------------
                                   SCF
            by Justin Turney, Rob Parrish, Andy Simmonett
                             and Daniel Smith
                              UKS Reference
                        1 Threads,    500 MiB Core
         ---------------------------------------------------------

  ==> Geometry <==

    Molecular point group: c1
    Full point group: C1

    Geometry (in Angstrom), charge = 0, multiplicity = 1:

       Center              X                  Y                   Z               Mass       
    ------------   -----------------  -----------------  -----------------  -----------------
         C            0.229580279536    -0.361056032172     0.034914999796    12.000000000000
         O           -1.152009233434    -0.154160380598     0.075183797356    15.994914619560
         O            1.048424281019     0.530937268681    -0.061064444048    15.994914619560
         H            0.493532977948    -1.419163866481     0.174973421510     1.007825032070
         H           -1.583137670977    -0.261526447360    -0.814784725736     1.007825032070

  Running in c1 symmetry.

  Rotational constants: A =      2.63336  B =      0.36657  C =      0.33139 [cm^-1]
  Rotational constants: A =  78946.15715  B =  10989.39243  C =   9934.87199 [MHz]
  Nuclear repulsion =   68.286295128117487

  Charge       = 0
  Multiplicity = 1
  Electrons    = 24
  Nalpha       = 12
  Nbeta        = 12

  ==> Algorithm <==

  SCF Algorithm Type is DF.
  DIIS enabled.
  MOM disabled.
  Fractional occupation disabled.
  Guess Type is GWH.
  Energy threshold   = 1.00e-08
  Density threshold  = 1.00e-08
  Integral threshold = 0.00e+00

  ==> Primary Basis <==

  Basis Set: 3-21G
    Blend: 3-21G
    Number of shells: 19
    Number of basis function: 31
    Number of Cartesian functions: 31
    Spherical Harmonics?: false
    Max angular momentum: 1

  ==> DFT Potential <==

   => Composite Functional: B3LYP <= 

    B3LYP Hyb-GGA Exchange-Correlation Functional

    P. J. Stephens, F. J. Devlin, C. F. Chabalowski, and M. J. Frisch, J. Phys. Chem. 98, 11623 (1994)

    Deriv               =              1
    GGA                 =           TRUE
    Meta                =          FALSE

    Exchange Hybrid     =           TRUE
    MP2 Hybrid          =          FALSE

   => Exchange Functionals <=

    0.0800   Slater exchange
    0.7200         Becke 88

   => Exact (HF) Exchange <=

    0.2000               HF 

   => Correlation Functionals <=

    0.1900   Vosko, Wilk & Nusair (VWN5_RPA)
    0.8100   Lee, Yang & Parr

   => Molecular Quadrature <=

    Radial Scheme       =       TREUTLER
    Pruning Scheme      =           FLAT
    Nuclear Scheme      =       TREUTLER

    BS radius alpha     =              1
    Pruning alpha       =              1
    Radial Points       =             75
    Spherical Points    =            302
    Total Points        =         107803
    Total Blocks        =            865
    Max Points          =            256
    Max Functions       =             30

   => Loading Basis Set <=

    Name: (3-21G AUX)
    Role: JKFIT
    Keyword: DF_BASIS_SCF
    atoms 1   entry C          line   203 file /root/psi4conda/share/psi4/basis/def2-svp-jkfit.gbs 
    atoms 2-3 entry O          line   323 file /root/psi4conda/share/psi4/basis/def2-svp-jkfit.gbs 
    atoms 4-5 entry H          line    23 file /root/psi4conda/share/psi4/basis/def2-svp-jkfit.gbs 

  ==> Pre-Iterations <==

   -------------------------------------------------------
    Irrep   Nso     Nmo     Nalpha   Nbeta   Ndocc  Nsocc
   -------------------------------------------------------
     A         31      31       0       0       0       0
   -------------------------------------------------------
    Total      31      31      12      12      12       0
   -------------------------------------------------------

  ==> Integral Setup <==

  ==> DiskDFJK: Density-Fitted J/K Matrices <==

    J tasked:                  Yes
    K tasked:                  Yes
    wK tasked:                  No
    OpenMP threads:              1
    Integrals threads:           1
    Memory (MB):               375
    Algorithm:                Core
    Integral Cache:           NONE
    Schwarz Cutoff:          1E-12
    Fitting Condition:       1E-12

   => Auxiliary Basis Set <=

  Basis Set: (3-21G AUX)
    Blend: DEF2-SVP-JKFIT
    Number of shells: 87
    Number of basis function: 315
    Number of Cartesian functions: 315
    Spherical Harmonics?: false
    Max angular momentum: 4

  Minimum eigenvalue in the overlap matrix is 4.1254397477E-02.
  Using Symmetric Orthogonalization.

  SCF Guess: Generalized Wolfsberg-Helmholtz.

  ==> Iterations <==

                           Total Energy        Delta E     RMS |[F,P]|

   @DF-UKS iter   1:  -185.84869470805808   -1.85849e+02   1.06274e-01 
   @DF-UKS iter   2:  -183.43248176153816    2.41621e+00   9.61525e-02 DIIS
   @DF-UKS iter   3:  -187.86568644069985   -4.43320e+00   4.48523e-02 DIIS
   @DF-UKS iter   4:  -188.58066542395613   -7.14979e-01   1.63715e-02 DIIS
   @DF-UKS iter   5:  -188.64771325209904   -6.70478e-02   8.48272e-03 DIIS
   @DF-UKS iter   6:  -188.67239470305930   -2.46815e-02   2.23815e-03 DIIS
   @DF-UKS iter   7:  -188.67462350002899   -2.22880e-03   2.55424e-04 DIIS
   @DF-UKS iter   8:  -188.67465169351499   -2.81935e-05   4.69317e-05 DIIS
   @DF-UKS iter   9:  -188.67465240135624   -7.07841e-07   1.67744e-05 DIIS
   @DF-UKS iter  10:  -188.67465251217408   -1.10818e-07   3.58226e-07 DIIS
   @DF-UKS iter  11:  -188.67465251222450   -5.04201e-11   9.44950e-08 DIIS
   @DF-UKS iter  12:  -188.67465251222779   -3.29692e-12   1.81029e-08 DIIS
   @DF-UKS iter  13:  -188.67465251222814   -3.41061e-13   5.90901e-10 DIIS

  ==> Post-Iterations <==

   @Spin Contamination Metric:   1.776356839E-14
   @S^2 Expected:                0.000000000E+00
   @S^2 Observed:                1.776356839E-14
   @S   Expected:                0.000000000E+00
   @S   Observed:                0.000000000E+00

    Orbital Energies [Eh]
    ---------------------

    Alpha Occupied:                                                       

       1A    -19.066833     2A    -19.056778     3A    -10.269450  
       4A     -1.099847     5A     -1.026816     6A     -0.638221  
       7A     -0.547440     8A     -0.456246     9A     -0.435882  
      10A     -0.352246    11A     -0.305750    12A     -0.280687  

    Alpha Virtual:                                                        

      13A     -0.023352    14A      0.075262    15A      0.147500  
      16A      0.278801    17A      0.331727    18A      0.675174  
      19A      0.717024    20A      0.800986    21A      0.881625  
      22A      0.952691    23A      1.235248    24A      1.461997  
      25A      1.519852    26A      1.568265    27A      1.583508  
      28A      1.638656    29A      1.725505    30A      2.915552  
      31A      3.068127  

    Beta Occupied:                                                        

       1A    -19.066833     2A    -19.056778     3A    -10.269450  
       4A     -1.099847     5A     -1.026816     6A     -0.638221  
       7A     -0.547440     8A     -0.456246     9A     -0.435882  
      10A     -0.352246    11A     -0.305750    12A     -0.280687  

    Beta Virtual:                                                         

      13A     -0.023352    14A      0.075262    15A      0.147500  
      16A      0.278801    17A      0.331727    18A      0.675174  
      19A      0.717024    20A      0.800986    21A      0.881625  
      22A      0.952691    23A      1.235248    24A      1.461997  
      25A      1.519852    26A      1.568265    27A      1.583508  
      28A      1.638656    29A      1.725505    30A      2.915552  
      31A      3.068127  

    Final Occupation by Irrep:
              A 
    DOCC [    12 ]
    SOCC [     0 ]

  Energy converged.

  @DF-UKS Final Energy:  -188.67465251222814

   => Energetics <=

    Nuclear Repulsion Energy =             68.2862951281174873
    One-Electron Energy =                -393.3546980455355424
    Two-Electron Energy =                 155.1835270342217825
    DFT Exchange-Correlation Energy =     -18.7897766290318771
    Empirical Dispersion Energy =           0.0000000000000000
    VV10 Nonlocal Energy =                  0.0000000000000000
    Total Energy =                       -188.6746525122281355


  UHF NO Occupations:
  HONO-2 :   10  A 2.0000000
  HONO-1 :   11  A 2.0000000
  HONO-0 :   12  A 2.0000000
  LUNO+0 :   13  A 0.0000000
  LUNO+1 :   14  A 0.0000000
  LUNO+2 :   15  A 0.0000000
  LUNO+3 :   16  A 0.0000000



Properties will be evaluated at   0.000000,   0.000000,   0.000000 [a0]

Properties computed using the SCF density matrix

  Nuclear Dipole Moment: [e a0]
     X:    -1.0220      Y:    -1.5738      Z:    -0.5997

  Electronic Dipole Moment: [e a0]
     X:     0.5043      Y:     0.7775      Z:    -0.0260

  Dipole Moment: [e a0]
     X:    -0.5176      Y:    -0.7963      Z:    -0.6257     Total:     1.1374

  Dipole Moment: [D]
     X:    -1.3157      Y:    -2.0240      Z:    -1.5904     Total:     2.8909


*** tstop() called on localhost.localdomain at Tue Mar 26 10:28:25 2019
Module time:
	user time   =       3.96 seconds =       0.07 minutes
	system time =       0.09 seconds =       0.00 minutes
	total time  =          4 seconds =       0.07 minutes
Total time:
	user time   =       8.75 seconds =       0.15 minutes
	system time =       0.23 seconds =       0.00 minutes
	total time  =          9 seconds =       0.15 minutes

*** tstart() called on localhost.localdomain
*** at Tue Mar 26 10:28:25 2019


         ------------------------------------------------------------
                                   SCF GRAD                          
                          Rob Parrish, Justin Turney,                
                       Andy Simmonett, and Alex Sokolov              
         ------------------------------------------------------------

  ==> Geometry <==

    Molecular point group: c1
    Full point group: C1

    Geometry (in Angstrom), charge = 0, multiplicity = 1:

       Center              X                  Y                   Z               Mass       
    ------------   -----------------  -----------------  -----------------  -----------------
         C            0.229580279536    -0.361056032172     0.034914999796    12.000000000000
         O           -1.152009233434    -0.154160380598     0.075183797356    15.994914619560
         O            1.048424281019     0.530937268681    -0.061064444048    15.994914619560
         H            0.493532977948    -1.419163866481     0.174973421510     1.007825032070
         H           -1.583137670977    -0.261526447360    -0.814784725736     1.007825032070

  Nuclear repulsion =   68.286295128117487

  ==> Basis Set <==

  Basis Set: 3-21G
    Blend: 3-21G
    Number of shells: 19
    Number of basis function: 31
    Number of Cartesian functions: 31
    Spherical Harmonics?: false
    Max angular momentum: 1

  ==> DFJKGrad: Density-Fitted SCF Gradients <==

    Gradient:                    1
    J tasked:                  Yes
    K tasked:                  Yes
    wK tasked:                  No
    OpenMP threads:              1
    Integrals threads:           1
    Memory (MB):               375
    Schwarz Cutoff:          0E+00
    Fitting Condition:       1E-12

   => Auxiliary Basis Set <=

  Basis Set: (3-21G AUX)
    Blend: DEF2-SVP-JKFIT
    Number of shells: 87
    Number of basis function: 315
    Number of Cartesian functions: 315
    Spherical Harmonics?: false
    Max angular momentum: 4

  ==> DFT Potential <==

   => Composite Functional: B3LYP <= 

    B3LYP Hyb-GGA Exchange-Correlation Functional

    P. J. Stephens, F. J. Devlin, C. F. Chabalowski, and M. J. Frisch, J. Phys. Chem. 98, 11623 (1994)

    Deriv               =              1
    GGA                 =           TRUE
    Meta                =          FALSE

    Exchange Hybrid     =           TRUE
    MP2 Hybrid          =          FALSE

   => Exchange Functionals <=

    0.0800   Slater exchange
    0.7200         Becke 88

   => Exact (HF) Exchange <=

    0.2000               HF 

   => Correlation Functionals <=

    0.1900   Vosko, Wilk & Nusair (VWN5_RPA)
    0.8100   Lee, Yang & Parr

   => Molecular Quadrature <=

    Radial Scheme       =       TREUTLER
    Pruning Scheme      =           FLAT
    Nuclear Scheme      =       TREUTLER

    BS radius alpha     =              1
    Pruning alpha       =              1
    Radial Points       =             75
    Spherical Points    =            302
    Total Points        =         107803
    Total Blocks        =            865
    Max Points          =            256
    Max Functions       =             30


  -Total Gradient:
     Atom            X                  Y                   Z
    ------   -----------------  -----------------  -----------------
       1       -0.001489438241    -0.000375220216     0.000167781506
       2        0.000526697384    -0.000052470115     0.000089904954
       3        0.000796145352     0.000573822820    -0.000097130272
       4        0.000163712331    -0.000104602542    -0.000054449731
       5        0.000015264293    -0.000054583672    -0.000114763399


*** tstop() called on localhost.localdomain at Tue Mar 26 10:28:26 2019
Module time:
	user time   =       0.63 seconds =       0.01 minutes
	system time =       0.00 seconds =       0.00 minutes
	total time  =          1 seconds =       0.02 minutes
Total time:
	user time   =       9.38 seconds =       0.16 minutes
	system time =       0.23 seconds =       0.00 minutes
	total time  =         10 seconds =       0.17 minutes

  //>>>>>>>>>>>>>>>>>>>>>>>>>>>>>>>>>>>//
  //    Loading displacement 2 of 19   //
  //<<<<<<<<<<<<<<<<<<<<<<<<<<<<<<<<<<<//
gradient() will perform analytic gradient computation.

*** tstart() called on localhost.localdomain
*** at Tue Mar 26 10:28:26 2019

   => Loading Basis Set <=

    Name: 3-21G
    Role: ORBITAL
    Keyword: BASIS
    atoms 1   entry C          line    68 file /root/psi4conda/share/psi4/basis/3-21g.gbs 
    atoms 2-3 entry O          line    90 file /root/psi4conda/share/psi4/basis/3-21g.gbs 
    atoms 4-5 entry H          line    21 file /root/psi4conda/share/psi4/basis/3-21g.gbs 


         ---------------------------------------------------------
                                   SCF
            by Justin Turney, Rob Parrish, Andy Simmonett
                             and Daniel Smith
                              UKS Reference
                        1 Threads,    500 MiB Core
         ---------------------------------------------------------

  ==> Geometry <==

    Molecular point group: c1
    Full point group: C1

    Geometry (in Angstrom), charge = 0, multiplicity = 1:

       Center              X                  Y                   Z               Mass       
    ------------   -----------------  -----------------  -----------------  -----------------
         C            0.230865753802    -0.361091595056     0.034918814161    12.000000000000
         O           -1.152507678578    -0.153982098332     0.075166991860    15.994914619560
         O            1.048033766805     0.530775090828    -0.061049611050    15.994914619560
         H            0.492837411501    -1.419239932784     0.174982345059     1.007825032070
         H           -1.583639596263    -0.261282528612    -0.814807761299     1.007825032070

  Running in c1 symmetry.

  Rotational constants: A =      2.63132  B =      0.36653  C =      0.33133 [cm^-1]
  Rotational constants: A =  78885.13167  B =  10988.17773  C =   9932.91452 [MHz]
  Nuclear repulsion =   68.283911711668807

  Charge       = 0
  Multiplicity = 1
  Electrons    = 24
  Nalpha       = 12
  Nbeta        = 12

  ==> Algorithm <==

  SCF Algorithm Type is DF.
  DIIS enabled.
  MOM disabled.
  Fractional occupation disabled.
  Guess Type is GWH.
  Energy threshold   = 1.00e-08
  Density threshold  = 1.00e-08
  Integral threshold = 0.00e+00

  ==> Primary Basis <==

  Basis Set: 3-21G
    Blend: 3-21G
    Number of shells: 19
    Number of basis function: 31
    Number of Cartesian functions: 31
    Spherical Harmonics?: false
    Max angular momentum: 1

  ==> DFT Potential <==

   => Composite Functional: B3LYP <= 

    B3LYP Hyb-GGA Exchange-Correlation Functional

    P. J. Stephens, F. J. Devlin, C. F. Chabalowski, and M. J. Frisch, J. Phys. Chem. 98, 11623 (1994)

    Deriv               =              1
    GGA                 =           TRUE
    Meta                =          FALSE

    Exchange Hybrid     =           TRUE
    MP2 Hybrid          =          FALSE

   => Exchange Functionals <=

    0.0800   Slater exchange
    0.7200         Becke 88

   => Exact (HF) Exchange <=

    0.2000               HF 

   => Correlation Functionals <=

    0.1900   Vosko, Wilk & Nusair (VWN5_RPA)
    0.8100   Lee, Yang & Parr

   => Molecular Quadrature <=

    Radial Scheme       =       TREUTLER
    Pruning Scheme      =           FLAT
    Nuclear Scheme      =       TREUTLER

    BS radius alpha     =              1
    Pruning alpha       =              1
    Radial Points       =             75
    Spherical Points    =            302
    Total Points        =         107804
    Total Blocks        =            868
    Max Points          =            256
    Max Functions       =             30

   => Loading Basis Set <=

    Name: (3-21G AUX)
    Role: JKFIT
    Keyword: DF_BASIS_SCF
    atoms 1   entry C          line   203 file /root/psi4conda/share/psi4/basis/def2-svp-jkfit.gbs 
    atoms 2-3 entry O          line   323 file /root/psi4conda/share/psi4/basis/def2-svp-jkfit.gbs 
    atoms 4-5 entry H          line    23 file /root/psi4conda/share/psi4/basis/def2-svp-jkfit.gbs 

  ==> Pre-Iterations <==

   -------------------------------------------------------
    Irrep   Nso     Nmo     Nalpha   Nbeta   Ndocc  Nsocc
   -------------------------------------------------------
     A         31      31       0       0       0       0
   -------------------------------------------------------
    Total      31      31      12      12      12       0
   -------------------------------------------------------

  ==> Integral Setup <==

  ==> DiskDFJK: Density-Fitted J/K Matrices <==

    J tasked:                  Yes
    K tasked:                  Yes
    wK tasked:                  No
    OpenMP threads:              1
    Integrals threads:           1
    Memory (MB):               375
    Algorithm:                Core
    Integral Cache:           NONE
    Schwarz Cutoff:          1E-12
    Fitting Condition:       1E-12

   => Auxiliary Basis Set <=

  Basis Set: (3-21G AUX)
    Blend: DEF2-SVP-JKFIT
    Number of shells: 87
    Number of basis function: 315
    Number of Cartesian functions: 315
    Spherical Harmonics?: false
    Max angular momentum: 4

  Minimum eigenvalue in the overlap matrix is 4.1205830416E-02.
  Using Symmetric Orthogonalization.

  SCF Guess: Generalized Wolfsberg-Helmholtz.

  ==> Iterations <==

                           Total Energy        Delta E     RMS |[F,P]|

   @DF-UKS iter   1:  -185.84852441462755   -1.85849e+02   1.06286e-01 
   @DF-UKS iter   2:  -183.43631120143027    2.41221e+00   9.61684e-02 DIIS
   @DF-UKS iter   3:  -187.86825862947677   -4.43195e+00   4.47852e-02 DIIS
   @DF-UKS iter   4:  -188.58073695653866   -7.12478e-01   1.63602e-02 DIIS
   @DF-UKS iter   5:  -188.64766725195398   -6.69303e-02   8.49020e-03 DIIS
   @DF-UKS iter   6:  -188.67238952305212   -2.47223e-02   2.24153e-03 DIIS
   @DF-UKS iter   7:  -188.67462472524932   -2.23520e-03   2.54680e-04 DIIS
   @DF-UKS iter   8:  -188.67465274414138   -2.80189e-05   4.66555e-05 DIIS
   @DF-UKS iter   9:  -188.67465344486783   -7.00726e-07   1.65965e-05 DIIS
   @DF-UKS iter  10:  -188.67465355329836   -1.08431e-07   3.46275e-07 DIIS
   @DF-UKS iter  11:  -188.67465355334582   -4.74643e-11   9.19110e-08 DIIS
   @DF-UKS iter  12:  -188.67465355334883   -3.01270e-12   1.74878e-08 DIIS
   @DF-UKS iter  13:  -188.67465355334895   -1.13687e-13   5.74060e-10 DIIS

  ==> Post-Iterations <==

   @Spin Contamination Metric:  -2.486899575E-14
   @S^2 Expected:                0.000000000E+00
   @S^2 Observed:               -2.486899575E-14
   @S   Expected:                0.000000000E+00
   @S   Observed:                0.000000000E+00

    Orbital Energies [Eh]
    ---------------------

    Alpha Occupied:                                                       

       1A    -19.066302     2A    -19.057113     3A    -10.269469  
       4A     -1.100140     5A     -1.026533     6A     -0.637975  
       7A     -0.547252     8A     -0.456350     9A     -0.435959  
      10A     -0.352509    11A     -0.305388    12A     -0.280902  

    Alpha Virtual:                                                        

      13A     -0.023226    14A      0.075468    15A      0.147457  
      16A      0.278001    17A      0.331838    18A      0.675011  
      19A      0.717273    20A      0.801660    21A      0.881902  
      22A      0.953129    23A      1.235688    24A      1.462013  
      25A      1.519594    26A      1.568253    27A      1.583377  
      28A      1.638427    29A      1.725840    30A      2.914509  
      31A      3.068990  

    Beta Occupied:                                                        

       1A    -19.066302     2A    -19.057113     3A    -10.269469  
       4A     -1.100140     5A     -1.026533     6A     -0.637975  
       7A     -0.547252     8A     -0.456350     9A     -0.435959  
      10A     -0.352509    11A     -0.305388    12A     -0.280902  

    Beta Virtual:                                                         

      13A     -0.023226    14A      0.075468    15A      0.147457  
      16A      0.278001    17A      0.331838    18A      0.675011  
      19A      0.717273    20A      0.801660    21A      0.881902  
      22A      0.953129    23A      1.235688    24A      1.462013  
      25A      1.519594    26A      1.568253    27A      1.583377  
      28A      1.638427    29A      1.725840    30A      2.914509  
      31A      3.068990  

    Final Occupation by Irrep:
              A 
    DOCC [    12 ]
    SOCC [     0 ]

  Energy converged.

  @DF-UKS Final Energy:  -188.67465355334895

   => Energetics <=

    Nuclear Repulsion Energy =             68.2839117116688072
    One-Electron Energy =                -393.3503538449086250
    Two-Electron Energy =                 155.1818275432189864
    DFT Exchange-Correlation Energy =     -18.7900389633281186
    Empirical Dispersion Energy =           0.0000000000000000
    VV10 Nonlocal Energy =                  0.0000000000000000
    Total Energy =                       -188.6746535533489748


  UHF NO Occupations:
  HONO-2 :   10  A 2.0000000
  HONO-1 :   11  A 2.0000000
  HONO-0 :   12  A 2.0000000
  LUNO+0 :   13  A 0.0000000
  LUNO+1 :   14  A 0.0000000
  LUNO+2 :   15  A 0.0000000
  LUNO+3 :   16  A 0.0000000



Properties will be evaluated at   0.000000,   0.000000,   0.000000 [a0]

Properties computed using the SCF density matrix

  Nuclear Dipole Moment: [e a0]
     X:    -1.0231      Y:    -1.5736      Z:    -0.5997

  Electronic Dipole Moment: [e a0]
     X:     0.5110      Y:     0.7773      Z:    -0.0254

  Dipole Moment: [e a0]
     X:    -0.5121      Y:    -0.7963      Z:    -0.6252     Total:     1.1346

  Dipole Moment: [D]
     X:    -1.3017      Y:    -2.0241      Z:    -1.5890     Total:     2.8838


*** tstop() called on localhost.localdomain at Tue Mar 26 10:28:30 2019
Module time:
	user time   =       3.92 seconds =       0.07 minutes
	system time =       0.07 seconds =       0.00 minutes
	total time  =          4 seconds =       0.07 minutes
Total time:
	user time   =      13.31 seconds =       0.22 minutes
	system time =       0.30 seconds =       0.01 minutes
	total time  =         14 seconds =       0.23 minutes

*** tstart() called on localhost.localdomain
*** at Tue Mar 26 10:28:30 2019


         ------------------------------------------------------------
                                   SCF GRAD                          
                          Rob Parrish, Justin Turney,                
                       Andy Simmonett, and Alex Sokolov              
         ------------------------------------------------------------

  ==> Geometry <==

    Molecular point group: c1
    Full point group: C1

    Geometry (in Angstrom), charge = 0, multiplicity = 1:

       Center              X                  Y                   Z               Mass       
    ------------   -----------------  -----------------  -----------------  -----------------
         C            0.230865753802    -0.361091595056     0.034918814161    12.000000000000
         O           -1.152507678578    -0.153982098332     0.075166991860    15.994914619560
         O            1.048033766805     0.530775090828    -0.061049611050    15.994914619560
         H            0.492837411501    -1.419239932784     0.174982345059     1.007825032070
         H           -1.583639596263    -0.261282528612    -0.814807761299     1.007825032070

  Nuclear repulsion =   68.283911711668807

  ==> Basis Set <==

  Basis Set: 3-21G
    Blend: 3-21G
    Number of shells: 19
    Number of basis function: 31
    Number of Cartesian functions: 31
    Spherical Harmonics?: false
    Max angular momentum: 1

  ==> DFJKGrad: Density-Fitted SCF Gradients <==

    Gradient:                    1
    J tasked:                  Yes
    K tasked:                  Yes
    wK tasked:                  No
    OpenMP threads:              1
    Integrals threads:           1
    Memory (MB):               375
    Schwarz Cutoff:          0E+00
    Fitting Condition:       1E-12

   => Auxiliary Basis Set <=

  Basis Set: (3-21G AUX)
    Blend: DEF2-SVP-JKFIT
    Number of shells: 87
    Number of basis function: 315
    Number of Cartesian functions: 315
    Spherical Harmonics?: false
    Max angular momentum: 4

  ==> DFT Potential <==

   => Composite Functional: B3LYP <= 

    B3LYP Hyb-GGA Exchange-Correlation Functional

    P. J. Stephens, F. J. Devlin, C. F. Chabalowski, and M. J. Frisch, J. Phys. Chem. 98, 11623 (1994)

    Deriv               =              1
    GGA                 =           TRUE
    Meta                =          FALSE

    Exchange Hybrid     =           TRUE
    MP2 Hybrid          =          FALSE

   => Exchange Functionals <=

    0.0800   Slater exchange
    0.7200         Becke 88

   => Exact (HF) Exchange <=

    0.2000               HF 

   => Correlation Functionals <=

    0.1900   Vosko, Wilk & Nusair (VWN5_RPA)
    0.8100   Lee, Yang & Parr

   => Molecular Quadrature <=

    Radial Scheme       =       TREUTLER
    Pruning Scheme      =           FLAT
    Nuclear Scheme      =       TREUTLER

    BS radius alpha     =              1
    Pruning alpha       =              1
    Radial Points       =             75
    Spherical Points    =            302
    Total Points        =         107804
    Total Blocks        =            868
    Max Points          =            256
    Max Functions       =             30


  -Total Gradient:
     Atom            X                  Y                   Z
    ------   -----------------  -----------------  -----------------
       1        0.000829195402     0.000354708214     0.000188452370
       2       -0.000208546565     0.000081294457    -0.000031901782
       3       -0.000463851354    -0.000496387644     0.000000857223
       4       -0.000062479870     0.000084201892    -0.000103046514
       5       -0.000082279305    -0.000035918260    -0.000063112665


*** tstop() called on localhost.localdomain at Tue Mar 26 10:28:31 2019
Module time:
	user time   =       0.59 seconds =       0.01 minutes
	system time =       0.01 seconds =       0.00 minutes
	total time  =          1 seconds =       0.02 minutes
Total time:
	user time   =      13.90 seconds =       0.23 minutes
	system time =       0.31 seconds =       0.01 minutes
	total time  =         15 seconds =       0.25 minutes

  //>>>>>>>>>>>>>>>>>>>>>>>>>>>>>>>>>>>//
  //    Loading displacement 3 of 19   //
  //<<<<<<<<<<<<<<<<<<<<<<<<<<<<<<<<<<<//
gradient() will perform analytic gradient computation.

*** tstart() called on localhost.localdomain
*** at Tue Mar 26 10:28:31 2019

   => Loading Basis Set <=

    Name: 3-21G
    Role: ORBITAL
    Keyword: BASIS
    atoms 1   entry C          line    68 file /root/psi4conda/share/psi4/basis/3-21g.gbs 
    atoms 2-3 entry O          line    90 file /root/psi4conda/share/psi4/basis/3-21g.gbs 
    atoms 4-5 entry H          line    21 file /root/psi4conda/share/psi4/basis/3-21g.gbs 


         ---------------------------------------------------------
                                   SCF
            by Justin Turney, Rob Parrish, Andy Simmonett
                             and Daniel Smith
                              UKS Reference
                        1 Threads,    500 MiB Core
         ---------------------------------------------------------

  ==> Geometry <==

    Molecular point group: c1
    Full point group: C1

    Geometry (in Angstrom), charge = 0, multiplicity = 1:

       Center              X                  Y                   Z               Mass       
    ------------   -----------------  -----------------  -----------------  -----------------
         C            0.230223016669    -0.361723391638     0.034943386142    12.000000000000
         O           -1.152245111336    -0.153892644706     0.075166510860    15.994914619560
         O            1.048208660483     0.531141544905    -0.061073576740    15.994914619560
         H            0.493263252203    -1.418930751729     0.175075314945     1.007825032070
         H           -1.583355298300    -0.261304602098    -0.814805318838     1.007825032070

  Running in c1 symmetry.

  Rotational constants: A =      2.62888  B =      0.36655  C =      0.33131 [cm^-1]
  Rotational constants: A =  78811.76881  B =  10988.96617  C =   9932.40755 [MHz]
  Nuclear repulsion =   68.274266799397211

  Charge       = 0
  Multiplicity = 1
  Electrons    = 24
  Nalpha       = 12
  Nbeta        = 12

  ==> Algorithm <==

  SCF Algorithm Type is DF.
  DIIS enabled.
  MOM disabled.
  Fractional occupation disabled.
  Guess Type is GWH.
  Energy threshold   = 1.00e-08
  Density threshold  = 1.00e-08
  Integral threshold = 0.00e+00

  ==> Primary Basis <==

  Basis Set: 3-21G
    Blend: 3-21G
    Number of shells: 19
    Number of basis function: 31
    Number of Cartesian functions: 31
    Spherical Harmonics?: false
    Max angular momentum: 1

  ==> DFT Potential <==

   => Composite Functional: B3LYP <= 

    B3LYP Hyb-GGA Exchange-Correlation Functional

    P. J. Stephens, F. J. Devlin, C. F. Chabalowski, and M. J. Frisch, J. Phys. Chem. 98, 11623 (1994)

    Deriv               =              1
    GGA                 =           TRUE
    Meta                =          FALSE

    Exchange Hybrid     =           TRUE
    MP2 Hybrid          =          FALSE

   => Exchange Functionals <=

    0.0800   Slater exchange
    0.7200         Becke 88

   => Exact (HF) Exchange <=

    0.2000               HF 

   => Correlation Functionals <=

    0.1900   Vosko, Wilk & Nusair (VWN5_RPA)
    0.8100   Lee, Yang & Parr

   => Molecular Quadrature <=

    Radial Scheme       =       TREUTLER
    Pruning Scheme      =           FLAT
    Nuclear Scheme      =       TREUTLER

    BS radius alpha     =              1
    Pruning alpha       =              1
    Radial Points       =             75
    Spherical Points    =            302
    Total Points        =         107804
    Total Blocks        =            867
    Max Points          =            255
    Max Functions       =             30

   => Loading Basis Set <=

    Name: (3-21G AUX)
    Role: JKFIT
    Keyword: DF_BASIS_SCF
    atoms 1   entry C          line   203 file /root/psi4conda/share/psi4/basis/def2-svp-jkfit.gbs 
    atoms 2-3 entry O          line   323 file /root/psi4conda/share/psi4/basis/def2-svp-jkfit.gbs 
    atoms 4-5 entry H          line    23 file /root/psi4conda/share/psi4/basis/def2-svp-jkfit.gbs 

  ==> Pre-Iterations <==

   -------------------------------------------------------
    Irrep   Nso     Nmo     Nalpha   Nbeta   Ndocc  Nsocc
   -------------------------------------------------------
     A         31      31       0       0       0       0
   -------------------------------------------------------
    Total      31      31      12      12      12       0
   -------------------------------------------------------

  ==> Integral Setup <==

  ==> DiskDFJK: Density-Fitted J/K Matrices <==

    J tasked:                  Yes
    K tasked:                  Yes
    wK tasked:                  No
    OpenMP threads:              1
    Integrals threads:           1
    Memory (MB):               375
    Algorithm:                Core
    Integral Cache:           NONE
    Schwarz Cutoff:          1E-12
    Fitting Condition:       1E-12

   => Auxiliary Basis Set <=

  Basis Set: (3-21G AUX)
    Blend: DEF2-SVP-JKFIT
    Number of shells: 87
    Number of basis function: 315
    Number of Cartesian functions: 315
    Spherical Harmonics?: false
    Max angular momentum: 4

  Minimum eigenvalue in the overlap matrix is 4.1245914869E-02.
  Using Symmetric Orthogonalization.

  SCF Guess: Generalized Wolfsberg-Helmholtz.

  ==> Iterations <==

                           Total Energy        Delta E     RMS |[F,P]|

   @DF-UKS iter   1:  -185.84797383142171   -1.85848e+02   1.06299e-01 
   @DF-UKS iter   2:  -183.42544976735343    2.42252e+00   9.61944e-02 DIIS
   @DF-UKS iter   3:  -187.86478317668224   -4.43933e+00   4.48682e-02 DIIS
   @DF-UKS iter   4:  -188.58069525505721   -7.15912e-01   1.63668e-02 DIIS
   @DF-UKS iter   5:  -188.64756415903327   -6.68689e-02   8.50571e-03 DIIS
   @DF-UKS iter   6:  -188.67238964313282   -2.48255e-02   2.24102e-03 DIIS
   @DF-UKS iter   7:  -188.67462393750429   -2.23429e-03   2.54692e-04 DIIS
   @DF-UKS iter   8:  -188.67465198044152   -2.80429e-05   4.68871e-05 DIIS
   @DF-UKS iter   9:  -188.67465268687755   -7.06436e-07   1.67774e-05 DIIS
   @DF-UKS iter  10:  -188.67465279772938   -1.10852e-07   3.57072e-07 DIIS
   @DF-UKS iter  11:  -188.67465279777980   -5.04201e-11   9.41767e-08 DIIS
   @DF-UKS iter  12:  -188.67465279778310   -3.29692e-12   1.80727e-08 DIIS
   @DF-UKS iter  13:  -188.67465279778310    0.00000e+00   5.88111e-10 DIIS

  ==> Post-Iterations <==

   @Spin Contamination Metric:   1.065814104E-14
   @S^2 Expected:                0.000000000E+00
   @S^2 Observed:                1.065814104E-14
   @S   Expected:                0.000000000E+00
   @S   Observed:                0.000000000E+00

    Orbital Energies [Eh]
    ---------------------

    Alpha Occupied:                                                       

       1A    -19.066580     2A    -19.056878     3A    -10.269429  
       4A     -1.099690     5A     -1.026473     6A     -0.638224  
       7A     -0.547428     8A     -0.456179     9A     -0.435762  
      10A     -0.352225    11A     -0.305579    12A     -0.280738  

    Alpha Virtual:                                                        

      13A     -0.023468    14A      0.075363    15A      0.147605  
      16A      0.278265    17A      0.331520    18A      0.675161  
      19A      0.717024    20A      0.800891    21A      0.881728  
      22A      0.952973    23A      1.235648    24A      1.462074  
      25A      1.519936    26A      1.568255    27A      1.583616  
      28A      1.638440    29A      1.725584    30A      2.914562  
      31A      3.068142  

    Beta Occupied:                                                        

       1A    -19.066580     2A    -19.056878     3A    -10.269429  
       4A     -1.099690     5A     -1.026473     6A     -0.638224  
       7A     -0.547428     8A     -0.456179     9A     -0.435762  
      10A     -0.352225    11A     -0.305579    12A     -0.280738  

    Beta Virtual:                                                         

      13A     -0.023468    14A      0.075363    15A      0.147605  
      16A      0.278265    17A      0.331520    18A      0.675161  
      19A      0.717024    20A      0.800891    21A      0.881728  
      22A      0.952973    23A      1.235648    24A      1.462074  
      25A      1.519936    26A      1.568255    27A      1.583616  
      28A      1.638440    29A      1.725584    30A      2.914562  
      31A      3.068142  

    Final Occupation by Irrep:
              A 
    DOCC [    12 ]
    SOCC [     0 ]

  Energy converged.

  @DF-UKS Final Energy:  -188.67465279778310

   => Energetics <=

    Nuclear Repulsion Energy =             68.2742667993972105
    One-Electron Energy =                -393.3327059573181828
    Two-Electron Energy =                 155.1734864385262824
    DFT Exchange-Correlation Energy =     -18.7897000783884174
    Empirical Dispersion Energy =           0.0000000000000000
    VV10 Nonlocal Energy =                  0.0000000000000000
    Total Energy =                       -188.6746527977831249


  UHF NO Occupations:
  HONO-2 :   10  A 2.0000000
  HONO-1 :   11  A 2.0000000
  HONO-0 :   12  A 2.0000000
  LUNO+0 :   13  A 0.0000000
  LUNO+1 :   14  A 0.0000000
  LUNO+2 :   15  A 0.0000000
  LUNO+3 :   16  A 0.0000000



Properties will be evaluated at   0.000000,   0.000000,   0.000000 [a0]

Properties computed using the SCF density matrix

  Nuclear Dipole Moment: [e a0]
     X:    -1.0224      Y:    -1.5734      Z:    -0.5997

  Electronic Dipole Moment: [e a0]
     X:     0.5075      Y:     0.7752      Z:    -0.0255

  Dipole Moment: [e a0]
     X:    -0.5149      Y:    -0.7982      Z:    -0.6252     Total:     1.1371

  Dipole Moment: [D]
     X:    -1.3087      Y:    -2.0288      Z:    -1.5890     Total:     2.8903


*** tstop() called on localhost.localdomain at Tue Mar 26 10:28:35 2019
Module time:
	user time   =       3.97 seconds =       0.07 minutes
	system time =       0.07 seconds =       0.00 minutes
	total time  =          4 seconds =       0.07 minutes
Total time:
	user time   =      17.88 seconds =       0.30 minutes
	system time =       0.38 seconds =       0.01 minutes
	total time  =         19 seconds =       0.32 minutes

*** tstart() called on localhost.localdomain
*** at Tue Mar 26 10:28:35 2019


         ------------------------------------------------------------
                                   SCF GRAD                          
                          Rob Parrish, Justin Turney,                
                       Andy Simmonett, and Alex Sokolov              
         ------------------------------------------------------------

  ==> Geometry <==

    Molecular point group: c1
    Full point group: C1

    Geometry (in Angstrom), charge = 0, multiplicity = 1:

       Center              X                  Y                   Z               Mass       
    ------------   -----------------  -----------------  -----------------  -----------------
         C            0.230223016669    -0.361723391638     0.034943386142    12.000000000000
         O           -1.152245111336    -0.153892644706     0.075166510860    15.994914619560
         O            1.048208660483     0.531141544905    -0.061073576740    15.994914619560
         H            0.493263252203    -1.418930751729     0.175075314945     1.007825032070
         H           -1.583355298300    -0.261304602098    -0.814805318838     1.007825032070

  Nuclear repulsion =   68.274266799397211

  ==> Basis Set <==

  Basis Set: 3-21G
    Blend: 3-21G
    Number of shells: 19
    Number of basis function: 31
    Number of Cartesian functions: 31
    Spherical Harmonics?: false
    Max angular momentum: 1

  ==> DFJKGrad: Density-Fitted SCF Gradients <==

    Gradient:                    1
    J tasked:                  Yes
    K tasked:                  Yes
    wK tasked:                  No
    OpenMP threads:              1
    Integrals threads:           1
    Memory (MB):               375
    Schwarz Cutoff:          0E+00
    Fitting Condition:       1E-12

   => Auxiliary Basis Set <=

  Basis Set: (3-21G AUX)
    Blend: DEF2-SVP-JKFIT
    Number of shells: 87
    Number of basis function: 315
    Number of Cartesian functions: 315
    Spherical Harmonics?: false
    Max angular momentum: 4

  ==> DFT Potential <==

   => Composite Functional: B3LYP <= 

    B3LYP Hyb-GGA Exchange-Correlation Functional

    P. J. Stephens, F. J. Devlin, C. F. Chabalowski, and M. J. Frisch, J. Phys. Chem. 98, 11623 (1994)

    Deriv               =              1
    GGA                 =           TRUE
    Meta                =          FALSE

    Exchange Hybrid     =           TRUE
    MP2 Hybrid          =          FALSE

   => Exchange Functionals <=

    0.0800   Slater exchange
    0.7200         Becke 88

   => Exact (HF) Exchange <=

    0.2000               HF 

   => Correlation Functionals <=

    0.1900   Vosko, Wilk & Nusair (VWN5_RPA)
    0.8100   Lee, Yang & Parr

   => Molecular Quadrature <=

    Radial Scheme       =       TREUTLER
    Pruning Scheme      =           FLAT
    Nuclear Scheme      =       TREUTLER

    BS radius alpha     =              1
    Pruning alpha       =              1
    Radial Points       =             75
    Spherical Points    =            302
    Total Points        =         107804
    Total Blocks        =            867
    Max Points          =            255
    Max Functions       =             30


  -Total Gradient:
     Atom            X                  Y                   Z
    ------   -----------------  -----------------  -----------------
       1       -0.000719710242    -0.001449612548     0.000299709961
       2        0.000072695279     0.000157262500     0.000028201478
       3        0.000730959520     0.000877080548    -0.000124828847
       4       -0.000047343573     0.000439954819    -0.000125612350
       5       -0.000024329404    -0.000036599083    -0.000086219092


*** tstop() called on localhost.localdomain at Tue Mar 26 10:28:35 2019
Module time:
	user time   =       0.65 seconds =       0.01 minutes
	system time =       0.02 seconds =       0.00 minutes
	total time  =          0 seconds =       0.00 minutes
Total time:
	user time   =      18.53 seconds =       0.31 minutes
	system time =       0.40 seconds =       0.01 minutes
	total time  =         19 seconds =       0.32 minutes

  //>>>>>>>>>>>>>>>>>>>>>>>>>>>>>>>>>>>//
  //    Loading displacement 4 of 19   //
  //<<<<<<<<<<<<<<<<<<<<<<<<<<<<<<<<<<<//
gradient() will perform analytic gradient computation.

*** tstart() called on localhost.localdomain
*** at Tue Mar 26 10:28:35 2019

   => Loading Basis Set <=

    Name: 3-21G
    Role: ORBITAL
    Keyword: BASIS
    atoms 1   entry C          line    68 file /root/psi4conda/share/psi4/basis/3-21g.gbs 
    atoms 2-3 entry O          line    90 file /root/psi4conda/share/psi4/basis/3-21g.gbs 
    atoms 4-5 entry H          line    21 file /root/psi4conda/share/psi4/basis/3-21g.gbs 


         ---------------------------------------------------------
                                   SCF
            by Justin Turney, Rob Parrish, Andy Simmonett
                             and Daniel Smith
                              UKS Reference
                        1 Threads,    500 MiB Core
         ---------------------------------------------------------

  ==> Geometry <==

    Molecular point group: c1
    Full point group: C1

    Geometry (in Angstrom), charge = 0, multiplicity = 1:

       Center              X                  Y                   Z               Mass       
    ------------   -----------------  -----------------  -----------------  -----------------
         C            0.230223016669    -0.360424235590     0.034890427814    12.000000000000
         O           -1.152271800676    -0.154249834224     0.075184278357    15.994914619560
         O            1.048249387341     0.530570814603    -0.061040478358    15.994914619560
         H            0.493107137246    -1.419473047537     0.174880451623     1.007825032070
         H           -1.583421968939    -0.261504373874    -0.814787168198     1.007825032070

  Running in c1 symmetry.

  Rotational constants: A =      2.63581  B =      0.36654  C =      0.33141 [cm^-1]
  Rotational constants: A =  79019.59769  B =  10988.60726  C =   9935.37923 [MHz]
  Nuclear repulsion =   68.295924777440206

  Charge       = 0
  Multiplicity = 1
  Electrons    = 24
  Nalpha       = 12
  Nbeta        = 12

  ==> Algorithm <==

  SCF Algorithm Type is DF.
  DIIS enabled.
  MOM disabled.
  Fractional occupation disabled.
  Guess Type is GWH.
  Energy threshold   = 1.00e-08
  Density threshold  = 1.00e-08
  Integral threshold = 0.00e+00

  ==> Primary Basis <==

  Basis Set: 3-21G
    Blend: 3-21G
    Number of shells: 19
    Number of basis function: 31
    Number of Cartesian functions: 31
    Spherical Harmonics?: false
    Max angular momentum: 1

  ==> DFT Potential <==

   => Composite Functional: B3LYP <= 

    B3LYP Hyb-GGA Exchange-Correlation Functional

    P. J. Stephens, F. J. Devlin, C. F. Chabalowski, and M. J. Frisch, J. Phys. Chem. 98, 11623 (1994)

    Deriv               =              1
    GGA                 =           TRUE
    Meta                =          FALSE

    Exchange Hybrid     =           TRUE
    MP2 Hybrid          =          FALSE

   => Exchange Functionals <=

    0.0800   Slater exchange
    0.7200         Becke 88

   => Exact (HF) Exchange <=

    0.2000               HF 

   => Correlation Functionals <=

    0.1900   Vosko, Wilk & Nusair (VWN5_RPA)
    0.8100   Lee, Yang & Parr

   => Molecular Quadrature <=

    Radial Scheme       =       TREUTLER
    Pruning Scheme      =           FLAT
    Nuclear Scheme      =       TREUTLER

    BS radius alpha     =              1
    Pruning alpha       =              1
    Radial Points       =             75
    Spherical Points    =            302
    Total Points        =         107804
    Total Blocks        =            867
    Max Points          =            255
    Max Functions       =             30

   => Loading Basis Set <=

    Name: (3-21G AUX)
    Role: JKFIT
    Keyword: DF_BASIS_SCF
    atoms 1   entry C          line   203 file /root/psi4conda/share/psi4/basis/def2-svp-jkfit.gbs 
    atoms 2-3 entry O          line   323 file /root/psi4conda/share/psi4/basis/def2-svp-jkfit.gbs 
    atoms 4-5 entry H          line    23 file /root/psi4conda/share/psi4/basis/def2-svp-jkfit.gbs 

  ==> Pre-Iterations <==

   -------------------------------------------------------
    Irrep   Nso     Nmo     Nalpha   Nbeta   Ndocc  Nsocc
   -------------------------------------------------------
     A         31      31       0       0       0       0
   -------------------------------------------------------
    Total      31      31      12      12      12       0
   -------------------------------------------------------

  ==> Integral Setup <==

  ==> DiskDFJK: Density-Fitted J/K Matrices <==

    J tasked:                  Yes
    K tasked:                  Yes
    wK tasked:                  No
    OpenMP threads:              1
    Integrals threads:           1
    Memory (MB):               375
    Algorithm:                Core
    Integral Cache:           NONE
    Schwarz Cutoff:          1E-12
    Fitting Condition:       1E-12

   => Auxiliary Basis Set <=

  Basis Set: (3-21G AUX)
    Blend: DEF2-SVP-JKFIT
    Number of shells: 87
    Number of basis function: 315
    Number of Cartesian functions: 315
    Spherical Harmonics?: false
    Max angular momentum: 4

  Minimum eigenvalue in the overlap matrix is 4.1214409936E-02.
  Using Symmetric Orthogonalization.

  SCF Guess: Generalized Wolfsberg-Helmholtz.

  ==> Iterations <==

                           Total Energy        Delta E     RMS |[F,P]|

   @DF-UKS iter   1:  -185.84924133631611   -1.85849e+02   1.06262e-01 
   @DF-UKS iter   2:  -183.44338064842469    2.40586e+00   9.61261e-02 DIIS
   @DF-UKS iter   3:  -187.86916775889270   -4.42579e+00   4.47690e-02 DIIS
   @DF-UKS iter   4:  -188.58070638006575   -7.11539e-01   1.63650e-02 DIIS
   @DF-UKS iter   5:  -188.64781452281022   -6.71081e-02   8.46735e-03 DIIS
   @DF-UKS iter   6:  -188.67239410324663   -2.45796e-02   2.23866e-03 DIIS
   @DF-UKS iter   7:  -188.67462382320397   -2.22972e-03   2.55390e-04 DIIS
   @DF-UKS iter   8:  -188.67465198812050   -2.81649e-05   4.66942e-05 DIIS
   @DF-UKS iter   9:  -188.67465269005666   -7.01936e-07   1.65928e-05 DIIS
   @DF-UKS iter  10:  -188.67465279844461   -1.08388e-07   3.47297e-07 DIIS
   @DF-UKS iter  11:  -188.67465279849213   -4.75211e-11   9.22053e-08 DIIS
   @DF-UKS iter  12:  -188.67465279849549   -3.35376e-12   1.75213e-08 DIIS
   @DF-UKS iter  13:  -188.67465279849557   -8.52651e-14   5.77022e-10 DIIS

  ==> Post-Iterations <==

   @Spin Contamination Metric:   1.776356839E-15
   @S^2 Expected:                0.000000000E+00
   @S^2 Observed:                1.776356839E-15
   @S   Expected:                0.000000000E+00
   @S   Observed:                0.000000000E+00

    Orbital Energies [Eh]
    ---------------------

    Alpha Occupied:                                                       

       1A    -19.066556     2A    -19.057012     3A    -10.269489  
       4A     -1.100292     5A     -1.026880     6A     -0.637971  
       7A     -0.547265     8A     -0.456416     9A     -0.436079  
      10A     -0.352530    11A     -0.305561    12A     -0.280851  

    Alpha Virtual:                                                        

      13A     -0.023110    14A      0.075367    15A      0.147353  
      16A      0.278535    17A      0.332045    18A      0.675024  
      19A      0.717271    20A      0.801758    21A      0.881797  
      22A      0.952846    23A      1.235291    24A      1.461936  
      25A      1.519511    26A      1.568261    27A      1.583269  
      28A      1.638645    29A      1.725762    30A      2.915499  
      31A      3.068974  

    Beta Occupied:                                                        

       1A    -19.066556     2A    -19.057012     3A    -10.269489  
       4A     -1.100292     5A     -1.026880     6A     -0.637971  
       7A     -0.547265     8A     -0.456416     9A     -0.436079  
      10A     -0.352530    11A     -0.305561    12A     -0.280851  

    Beta Virtual:                                                         

      13A     -0.023110    14A      0.075367    15A      0.147353  
      16A      0.278535    17A      0.332045    18A      0.675024  
      19A      0.717271    20A      0.801758    21A      0.881797  
      22A      0.952846    23A      1.235291    24A      1.461936  
      25A      1.519511    26A      1.568261    27A      1.583269  
      28A      1.638645    29A      1.725762    30A      2.915499  
      31A      3.068974  

    Final Occupation by Irrep:
              A 
    DOCC [    12 ]
    SOCC [     0 ]

  Energy converged.

  @DF-UKS Final Energy:  -188.67465279849557

   => Energetics <=

    Nuclear Repulsion Energy =             68.2959247774402058
    One-Electron Energy =                -393.3723123281677658
    Two-Electron Energy =                 155.1918497380168844
    DFT Exchange-Correlation Energy =     -18.7901149857849248
    Empirical Dispersion Energy =           0.0000000000000000
    VV10 Nonlocal Energy =                  0.0000000000000000
    Total Energy =                       -188.6746527984955719


  UHF NO Occupations:
  HONO-2 :   10  A 2.0000000
  HONO-1 :   11  A 2.0000000
  HONO-0 :   12  A 2.0000000
  LUNO+0 :   13  A 0.0000000
  LUNO+1 :   14  A 0.0000000
  LUNO+2 :   15  A 0.0000000
  LUNO+3 :   16  A 0.0000000



Properties will be evaluated at   0.000000,   0.000000,   0.000000 [a0]

Properties computed using the SCF density matrix

  Nuclear Dipole Moment: [e a0]
     X:    -1.0226      Y:    -1.5741      Z:    -0.5998

  Electronic Dipole Moment: [e a0]
     X:     0.5078      Y:     0.7796      Z:    -0.0259

  Dipole Moment: [e a0]
     X:    -0.5149      Y:    -0.7945      Z:    -0.6257     Total:     1.1348

  Dipole Moment: [D]
     X:    -1.3087      Y:    -2.0193      Z:    -1.5904     Total:     2.8844


*** tstop() called on localhost.localdomain at Tue Mar 26 10:28:39 2019
Module time:
	user time   =       3.80 seconds =       0.06 minutes
	system time =       0.06 seconds =       0.00 minutes
	total time  =          4 seconds =       0.07 minutes
Total time:
	user time   =      22.34 seconds =       0.37 minutes
	system time =       0.46 seconds =       0.01 minutes
	total time  =         23 seconds =       0.38 minutes

*** tstart() called on localhost.localdomain
*** at Tue Mar 26 10:28:39 2019


         ------------------------------------------------------------
                                   SCF GRAD                          
                          Rob Parrish, Justin Turney,                
                       Andy Simmonett, and Alex Sokolov              
         ------------------------------------------------------------

  ==> Geometry <==

    Molecular point group: c1
    Full point group: C1

    Geometry (in Angstrom), charge = 0, multiplicity = 1:

       Center              X                  Y                   Z               Mass       
    ------------   -----------------  -----------------  -----------------  -----------------
         C            0.230223016669    -0.360424235590     0.034890427814    12.000000000000
         O           -1.152271800676    -0.154249834224     0.075184278357    15.994914619560
         O            1.048249387341     0.530570814603    -0.061040478358    15.994914619560
         H            0.493107137246    -1.419473047537     0.174880451623     1.007825032070
         H           -1.583421968939    -0.261504373874    -0.814787168198     1.007825032070

  Nuclear repulsion =   68.295924777440206

  ==> Basis Set <==

  Basis Set: 3-21G
    Blend: 3-21G
    Number of shells: 19
    Number of basis function: 31
    Number of Cartesian functions: 31
    Spherical Harmonics?: false
    Max angular momentum: 1

  ==> DFJKGrad: Density-Fitted SCF Gradients <==

    Gradient:                    1
    J tasked:                  Yes
    K tasked:                  Yes
    wK tasked:                  No
    OpenMP threads:              1
    Integrals threads:           1
    Memory (MB):               375
    Schwarz Cutoff:          0E+00
    Fitting Condition:       1E-12

   => Auxiliary Basis Set <=

  Basis Set: (3-21G AUX)
    Blend: DEF2-SVP-JKFIT
    Number of shells: 87
    Number of basis function: 315
    Number of Cartesian functions: 315
    Spherical Harmonics?: false
    Max angular momentum: 4

  ==> DFT Potential <==

   => Composite Functional: B3LYP <= 

    B3LYP Hyb-GGA Exchange-Correlation Functional

    P. J. Stephens, F. J. Devlin, C. F. Chabalowski, and M. J. Frisch, J. Phys. Chem. 98, 11623 (1994)

    Deriv               =              1
    GGA                 =           TRUE
    Meta                =          FALSE

    Exchange Hybrid     =           TRUE
    MP2 Hybrid          =          FALSE

   => Exchange Functionals <=

    0.0800   Slater exchange
    0.7200         Becke 88

   => Exact (HF) Exchange <=

    0.2000               HF 

   => Correlation Functionals <=

    0.1900   Vosko, Wilk & Nusair (VWN5_RPA)
    0.8100   Lee, Yang & Parr

   => Molecular Quadrature <=

    Radial Scheme       =       TREUTLER
    Pruning Scheme      =           FLAT
    Nuclear Scheme      =       TREUTLER

    BS radius alpha     =              1
    Pruning alpha       =              1
    Radial Points       =             75
    Spherical Points    =            302
    Total Points        =         107804
    Total Blocks        =            867
    Max Points          =            255
    Max Functions       =             30


  -Total Gradient:
     Atom            X                  Y                   Z
    ------   -----------------  -----------------  -----------------
       1        0.000065781662     0.001425676697     0.000057126419
       2        0.000242619041    -0.000128054871     0.000029425684
       3       -0.000400823761    -0.000799982350     0.000028680530
       4        0.000147390436    -0.000457029143    -0.000032460550
       5       -0.000042812263    -0.000053844554    -0.000091427547


*** tstop() called on localhost.localdomain at Tue Mar 26 10:28:40 2019
Module time:
	user time   =       0.59 seconds =       0.01 minutes
	system time =       0.01 seconds =       0.00 minutes
	total time  =          1 seconds =       0.02 minutes
Total time:
	user time   =      22.93 seconds =       0.38 minutes
	system time =       0.47 seconds =       0.01 minutes
	total time  =         24 seconds =       0.40 minutes

  //>>>>>>>>>>>>>>>>>>>>>>>>>>>>>>>>>>>//
  //    Loading displacement 5 of 19   //
  //<<<<<<<<<<<<<<<<<<<<<<<<<<<<<<<<<<<//
gradient() will perform analytic gradient computation.

*** tstart() called on localhost.localdomain
*** at Tue Mar 26 10:28:40 2019

   => Loading Basis Set <=

    Name: 3-21G
    Role: ORBITAL
    Keyword: BASIS
    atoms 1   entry C          line    68 file /root/psi4conda/share/psi4/basis/3-21g.gbs 
    atoms 2-3 entry O          line    90 file /root/psi4conda/share/psi4/basis/3-21g.gbs 
    atoms 4-5 entry H          line    21 file /root/psi4conda/share/psi4/basis/3-21g.gbs 


         ---------------------------------------------------------
                                   SCF
            by Justin Turney, Rob Parrish, Andy Simmonett
                             and Daniel Smith
                              UKS Reference
                        1 Threads,    500 MiB Core
         ---------------------------------------------------------

  ==> Geometry <==

    Molecular point group: c1
    Full point group: C1

    Geometry (in Angstrom), charge = 0, multiplicity = 1:

       Center              X                  Y                   Z               Mass       
    ------------   -----------------  -----------------  -----------------  -----------------
         C            0.230223016669    -0.361073813614     0.034422724379    12.000000000000
         O           -1.152276959623    -0.154020391186     0.075286873519    15.994914619560
         O            1.048233599961     0.530840238699    -0.060908548123    15.994914619560
         H            0.493167518084    -1.419026441695     0.176655322702     1.007825032070
         H           -1.583149916354    -0.262133948883    -0.814715262844     1.007825032070

  Running in c1 symmetry.

  Rotational constants: A =      2.63259  B =      0.36654  C =      0.33137 [cm^-1]
  Rotational constants: A =  78923.12664  B =  10988.68257  C =   9934.07697 [MHz]
  Nuclear repulsion =   68.285662756408598

  Charge       = 0
  Multiplicity = 1
  Electrons    = 24
  Nalpha       = 12
  Nbeta        = 12

  ==> Algorithm <==

  SCF Algorithm Type is DF.
  DIIS enabled.
  MOM disabled.
  Fractional occupation disabled.
  Guess Type is GWH.
  Energy threshold   = 1.00e-08
  Density threshold  = 1.00e-08
  Integral threshold = 0.00e+00

  ==> Primary Basis <==

  Basis Set: 3-21G
    Blend: 3-21G
    Number of shells: 19
    Number of basis function: 31
    Number of Cartesian functions: 31
    Spherical Harmonics?: false
    Max angular momentum: 1

  ==> DFT Potential <==

   => Composite Functional: B3LYP <= 

    B3LYP Hyb-GGA Exchange-Correlation Functional

    P. J. Stephens, F. J. Devlin, C. F. Chabalowski, and M. J. Frisch, J. Phys. Chem. 98, 11623 (1994)

    Deriv               =              1
    GGA                 =           TRUE
    Meta                =          FALSE

    Exchange Hybrid     =           TRUE
    MP2 Hybrid          =          FALSE

   => Exchange Functionals <=

    0.0800   Slater exchange
    0.7200         Becke 88

   => Exact (HF) Exchange <=

    0.2000               HF 

   => Correlation Functionals <=

    0.1900   Vosko, Wilk & Nusair (VWN5_RPA)
    0.8100   Lee, Yang & Parr

   => Molecular Quadrature <=

    Radial Scheme       =       TREUTLER
    Pruning Scheme      =           FLAT
    Nuclear Scheme      =       TREUTLER

    BS radius alpha     =              1
    Pruning alpha       =              1
    Radial Points       =             75
    Spherical Points    =            302
    Total Points        =         107806
    Total Blocks        =            867
    Max Points          =            256
    Max Functions       =             30

   => Loading Basis Set <=

    Name: (3-21G AUX)
    Role: JKFIT
    Keyword: DF_BASIS_SCF
    atoms 1   entry C          line   203 file /root/psi4conda/share/psi4/basis/def2-svp-jkfit.gbs 
    atoms 2-3 entry O          line   323 file /root/psi4conda/share/psi4/basis/def2-svp-jkfit.gbs 
    atoms 4-5 entry H          line    23 file /root/psi4conda/share/psi4/basis/def2-svp-jkfit.gbs 

  ==> Pre-Iterations <==

   -------------------------------------------------------
    Irrep   Nso     Nmo     Nalpha   Nbeta   Ndocc  Nsocc
   -------------------------------------------------------
     A         31      31       0       0       0       0
   -------------------------------------------------------
    Total      31      31      12      12      12       0
   -------------------------------------------------------

  ==> Integral Setup <==

  ==> DiskDFJK: Density-Fitted J/K Matrices <==

    J tasked:                  Yes
    K tasked:                  Yes
    wK tasked:                  No
    OpenMP threads:              1
    Integrals threads:           1
    Memory (MB):               375
    Algorithm:                Core
    Integral Cache:           NONE
    Schwarz Cutoff:          1E-12
    Fitting Condition:       1E-12
[...]
    Integrals threads:           1
    Memory (MB):               375
    Algorithm:                Core
    Integral Cache:           NONE
    Schwarz Cutoff:          1E-12
    Fitting Condition:       1E-12

   => Auxiliary Basis Set <=

  Basis Set: (3-21G AUX)
    Blend: DEF2-SVP-JKFIT
    Number of shells: 87
    Number of basis function: 315
    Number of Cartesian functions: 315
    Spherical Harmonics?: false
    Max angular momentum: 4

  Minimum eigenvalue in the overlap matrix is 4.1230234869E-02.
  Using Symmetric Orthogonalization.

  SCF Guess: Generalized Wolfsberg-Helmholtz.

  ==> Iterations <==

                           Total Energy        Delta E     RMS |[F,P]|

   @DF-UKS iter   1:  -185.84861133451670   -1.85849e+02   1.06280e-01 
   @DF-UKS iter   2:  -183.43442608971176    2.41419e+00   9.61603e-02 DIIS
   @DF-UKS iter   3:  -187.86697932064487   -4.43255e+00   4.48186e-02 DIIS
   @DF-UKS iter   4:  -188.58070222652933   -7.13723e-01   1.63659e-02 DIIS
   @DF-UKS iter   5:  -188.64769096819157   -6.69887e-02   8.48649e-03 DIIS
   @DF-UKS iter   6:  -188.67239310761673   -2.47021e-02   2.23984e-03 DIIS
   @DF-UKS iter   7:  -188.67462510802963   -2.23200e-03   2.55047e-04 DIIS
   @DF-UKS iter   8:  -188.67465321322899   -2.81052e-05   4.67912e-05 DIIS
   @DF-UKS iter   9:  -188.67465391743224   -7.04203e-07   1.66849e-05 DIIS
   @DF-UKS iter  10:  -188.67465402704633   -1.09614e-07   3.52183e-07 DIIS
   @DF-UKS iter  11:  -188.67465402709567   -4.93401e-11   9.31840e-08 DIIS
   @DF-UKS iter  12:  -188.67465402709900   -3.32534e-12   1.77964e-08 DIIS
   @DF-UKS iter  13:  -188.67465402709894    5.68434e-14   5.82541e-10 DIIS

  ==> Post-Iterations <==

   @Spin Contamination Metric:   4.440892099E-14
   @S^2 Expected:                0.000000000E+00
   @S^2 Observed:                4.440892099E-14
   @S   Expected:                0.000000000E+00
   @S   Observed:                0.000000000E+00

    Orbital Energies [Eh]
    ---------------------

    Alpha Occupied:                                                       

       1A    -19.066568     2A    -19.056945     3A    -10.269459  
       4A     -1.099990     5A     -1.026677     6A     -0.638097  
       7A     -0.547346     8A     -0.456297     9A     -0.435920  
      10A     -0.352378    11A     -0.305570    12A     -0.280795  

    Alpha Virtual:                                                        

      13A     -0.023289    14A      0.075365    15A      0.147479  
      16A      0.278401    17A      0.331782    18A      0.675092  
      19A      0.717149    20A      0.801322    21A      0.881762  
      22A      0.952910    23A      1.235468    24A      1.462005  
      25A      1.519724    26A      1.568260    27A      1.583441  
      28A      1.638542    29A      1.725673    30A      2.915031  
      31A      3.068558  

    Beta Occupied:                                                        

       1A    -19.066568     2A    -19.056945     3A    -10.269459  
       4A     -1.099990     5A     -1.026677     6A     -0.638097  
       7A     -0.547346     8A     -0.456297     9A     -0.435920  
      10A     -0.352378    11A     -0.305570    12A     -0.280795  

    Beta Virtual:                                                         

      13A     -0.023289    14A      0.075365    15A      0.147479  
      16A      0.278401    17A      0.331782    18A      0.675092  
      19A      0.717149    20A      0.801322    21A      0.881762  
      22A      0.952910    23A      1.235468    24A      1.462005  
      25A      1.519724    26A      1.568260    27A      1.583441  
      28A      1.638542    29A      1.725673    30A      2.915031  
      31A      3.068558  

    Final Occupation by Irrep:
              A 
    DOCC [    12 ]
    SOCC [     0 ]

  Energy converged.

  @DF-UKS Final Energy:  -188.67465402709894

   => Energetics <=

    Nuclear Repulsion Energy =             68.2850938312662095
    One-Electron Energy =                -393.3525095975967929
    Two-Electron Energy =                 155.1826690327507379
    DFT Exchange-Correlation Energy =     -18.7899072935191107
    Empirical Dispersion Energy =           0.0000000000000000
    VV10 Nonlocal Energy =                  0.0000000000000000
    Total Energy =                       -188.6746540270989385


  UHF NO Occupations:
  HONO-2 :   10  A 2.0000000
  HONO-1 :   11  A 2.0000000
  HONO-0 :   12  A 2.0000000
  LUNO+0 :   13  A 0.0000000
  LUNO+1 :   14  A 0.0000000
  LUNO+2 :   15  A 0.0000000
  LUNO+3 :   16  A 0.0000000



Properties will be evaluated at   0.000000,   0.000000,   0.000000 [a0]

Properties computed using the SCF density matrix

  Nuclear Dipole Moment: [e a0]
     X:    -1.0225      Y:    -1.5737      Z:    -0.5997

  Electronic Dipole Moment: [e a0]
     X:     0.5077      Y:     0.7774      Z:    -0.0257

  Dipole Moment: [e a0]
     X:    -0.5149      Y:    -0.7963      Z:    -0.6254     Total:     1.1360

  Dipole Moment: [D]
     X:    -1.3087      Y:    -2.0241      Z:    -1.5897     Total:     2.8873


*** tstop() called on localhost.localdomain at Tue Mar 26 10:29:49 2019
Module time:
	user time   =       3.99 seconds =       0.07 minutes
	system time =       0.10 seconds =       0.00 minutes
	total time  =          4 seconds =       0.07 minutes
Total time:
	user time   =      90.37 seconds =       1.51 minutes
	system time =       1.64 seconds =       0.03 minutes
	total time  =         93 seconds =       1.55 minutes

*** tstart() called on localhost.localdomain
*** at Tue Mar 26 10:29:49 2019


         ------------------------------------------------------------
                                   SCF GRAD                          
                          Rob Parrish, Justin Turney,                
                       Andy Simmonett, and Alex Sokolov              
         ------------------------------------------------------------

  ==> Geometry <==

    Molecular point group: c1
    Full point group: C1

    Geometry (in Angstrom), charge = 0, multiplicity = 1:

       Center              X                  Y                   Z               Mass       
    ------------   -----------------  -----------------  -----------------  -----------------
         C            0.230223016669    -0.361073813614     0.034916906978    12.000000000000
         O           -1.152258456006    -0.154071239465     0.075175394608    15.994914619560
         O            1.048229023912     0.530856179754    -0.061057027549    15.994914619560
         H            0.493185194724    -1.419201899633     0.174977883284     1.007825032070
         H           -1.583388633620    -0.261404487986    -0.814796243518     1.007825032070

  Nuclear repulsion =   68.285093831266209

  ==> Basis Set <==

  Basis Set: 3-21G
    Blend: 3-21G
    Number of shells: 19
    Number of basis function: 31
    Number of Cartesian functions: 31
    Spherical Harmonics?: false
    Max angular momentum: 1

  ==> DFJKGrad: Density-Fitted SCF Gradients <==

    Gradient:                    1
    J tasked:                  Yes
    K tasked:                  Yes
    wK tasked:                  No
    OpenMP threads:              1
    Integrals threads:           1
    Memory (MB):               375
    Schwarz Cutoff:          0E+00
    Fitting Condition:       1E-12

   => Auxiliary Basis Set <=

  Basis Set: (3-21G AUX)
    Blend: DEF2-SVP-JKFIT
    Number of shells: 87
    Number of basis function: 315
    Number of Cartesian functions: 315
    Spherical Harmonics?: false
    Max angular momentum: 4

  ==> DFT Potential <==

   => Composite Functional: B3LYP <= 

    B3LYP Hyb-GGA Exchange-Correlation Functional

    P. J. Stephens, F. J. Devlin, C. F. Chabalowski, and M. J. Frisch, J. Phys. Chem. 98, 11623 (1994)

    Deriv               =              1
    GGA                 =           TRUE
    Meta                =          FALSE

    Exchange Hybrid     =           TRUE
    MP2 Hybrid          =          FALSE

   => Exchange Functionals <=

    0.0800   Slater exchange
    0.7200         Becke 88

   => Exact (HF) Exchange <=

    0.2000               HF 

   => Correlation Functionals <=

    0.1900   Vosko, Wilk & Nusair (VWN5_RPA)
    0.8100   Lee, Yang & Parr

   => Molecular Quadrature <=

    Radial Scheme       =       TREUTLER
    Pruning Scheme      =           FLAT
    Nuclear Scheme      =       TREUTLER

    BS radius alpha     =              1
    Pruning alpha       =              1
    Radial Points       =             75
    Spherical Points    =            302
    Total Points        =         107804
    Total Blocks        =            869
    Max Points          =            255
    Max Functions       =             30


  -Total Gradient:
     Atom            X                  Y                   Z
    ------   -----------------  -----------------  -----------------
       1       -0.000329580677    -0.000012025661     0.000178318886
       2        0.000157673064     0.000014599292     0.000029041975
       3        0.000167218296     0.000040331664    -0.000048307159
       4        0.000050542374    -0.000010236230    -0.000078745151
       5       -0.000033643592    -0.000045247829    -0.000089012452


*** tstop() called on localhost.localdomain at Tue Mar 26 10:29:50 2019
Module time:
	user time   =       0.70 seconds =       0.01 minutes
	system time =       0.02 seconds =       0.00 minutes
	total time  =          1 seconds =       0.02 minutes
Total time:
	user time   =      91.07 seconds =       1.52 minutes
	system time =       1.66 seconds =       0.03 minutes
	total time  =         94 seconds =       1.57 minutes

-------------------------------------------------------------

  Computing second-derivative from gradients using projected, 
  symmetry-adapted, cartesian coordinates (fd_freq_1).

  19 gradients passed in, including the reference geometry.
  Generating complete list of displacements from unique ones.


-------------------------------------------------------------


  ==> Harmonic Vibrational Analysis <==

  non-mass-weighted Hessian:       Symmetric? True   Hermitian? True   Lin Dep Dim?  6 (0)
  projection of translations (True) and rotations (True) removed 6 degrees of freedom (6)
  total projector:                 Symmetric? True   Hermitian? True   Lin Dep Dim?  6 (6)
  mass-weighted Hessian:           Symmetric? True   Hermitian? True   Lin Dep Dim?  6 (0)
  pre-proj  low-frequency mode:    0.0000i [cm^-1]
  pre-proj  low-frequency mode:    0.0000i [cm^-1]
  pre-proj  low-frequency mode:    0.0000i [cm^-1]
  pre-proj  low-frequency mode:    0.0000  [cm^-1]
  pre-proj  low-frequency mode:    0.0000  [cm^-1]
  pre-proj  low-frequency mode:    0.0000  [cm^-1]
  pre-proj  low-frequency mode:    0.0000  [cm^-1]
  pre-proj  all modes:['614.1541i' '0.0000i' '0.0000i' '0.0000' '0.0000' '0.0000' '0.0000'
 '659.0536' '896.3515' '1043.3571' '1209.7713' '1445.1340' '1777.2129'
 '3004.0484' '3497.7680']
  projected mass-weighted Hessian: Symmetric? True   Hermitian? True   Lin Dep Dim?  6 (6)
  post-proj low-frequency mode:  614.1541i [cm^-1] (V)
  post-proj low-frequency mode:    0.0000i [cm^-1] (TR)
  post-proj low-frequency mode:    0.0000i [cm^-1] (TR)
  post-proj low-frequency mode:    0.0000i [cm^-1] (TR)
  post-proj low-frequency mode:    0.0000i [cm^-1] (TR)
  post-proj low-frequency mode:    0.0000  [cm^-1] (TR)
  post-proj low-frequency mode:    0.0000  [cm^-1] (TR)
  post-proj  all modes:['614.1541i' '0.0000i' '0.0000i' '0.0000i' '0.0000i' '0.0000' '0.0000'
 '659.0536' '896.3515' '1043.3571' '1209.7713' '1445.1340' '1777.2129'
 '3004.0484' '3497.7680']

  Vibration                       1                   8                   9           
  Freq [cm^-1]                614.1541i            659.0536            896.3515       
  Irrep                           A                   A                   A           
  Reduced mass [u]              1.1405              9.8649              1.2861        
  Force const [mDyne/A]        -0.2535              2.5246              0.6088        
  Turning point v=0 [a0]        0.0000              0.1361              0.3232        
  RMS dev v=0 [a0 u^1/2]        0.0000              0.3022              0.2592        
  Char temp [K]                 0.0000             948.2299           1289.6483       
  ----------------------------------------------------------------------------------
      1   C                0.00  0.01  0.05   -0.06  0.39 -0.05    0.06 -0.03  0.09   
      2   O               -0.01 -0.07  0.00   -0.42 -0.25  0.05   -0.08  0.03  0.03   
      3   O                0.00  0.00 -0.04    0.49 -0.04  0.00   -0.01  0.01 -0.04   
      4   H               -0.00  0.04  0.26   -0.19  0.34 -0.10    0.08 -0.11 -0.52   
      5   H                0.13  0.93 -0.19   -0.17 -0.41 -0.08    0.73 -0.08 -0.39   

  Vibration                       10                  11                  12          
  Freq [cm^-1]                1043.3571           1209.7713           1445.1340       
  Irrep                           A                   A                   A           
  Reduced mass [u]              4.0084              1.6789              1.1157        
  Force const [mDyne/A]         2.5709              1.4477              1.3728        
  Turning point v=0 [a0]        0.1697              0.2435              0.2733        
  RMS dev v=0 [a0 u^1/2]        0.2402              0.2231              0.2041        
  Char temp [K]               1501.1563           1740.5888           2079.2228       
  ----------------------------------------------------------------------------------
      1   C                0.29 -0.22 -0.18   -0.10  0.06 -0.18   -0.05  0.03 -0.01   
      2   O               -0.24  0.09  0.04    0.06 -0.01  0.08   -0.01  0.02 -0.00   
      3   O                0.01  0.08  0.05   -0.02 -0.03  0.04   -0.01 -0.06  0.01   
      4   H                0.28 -0.08  0.81   -0.18  0.13  0.53    0.95  0.29  0.00   
      5   H               -0.10 -0.00 -0.05    0.72 -0.17 -0.26    0.00  0.03 -0.01   

  Vibration                       13                  14                  15          
  Freq [cm^-1]                1777.2129           3004.0484           3497.7680       
  Irrep                           A                   A                   A           
  Reduced mass [u]              9.5928              1.0887              1.0662        
  Force const [mDyne/A]        17.8515              5.7885              7.6852        
  Turning point v=0 [a0]        0.0840              0.1919              0.1797        
  RMS dev v=0 [a0 u^1/2]        0.1840              0.1416              0.1312        
  Char temp [K]               2557.0097           4322.1502           5032.5017       
  ----------------------------------------------------------------------------------
      1   C                0.50  0.46 -0.03    0.01 -0.08  0.01    0.00 -0.00 -0.00   
      2   O               -0.02 -0.02 -0.01    0.00 -0.00  0.00   -0.03 -0.01 -0.05   
      3   O               -0.32 -0.35  0.03    0.00  0.00 -0.00    0.00  0.00  0.00   
      4   H               -0.39  0.32 -0.10   -0.24  0.96 -0.13    0.00 -0.00  0.00   
      5   H               -0.18  0.01  0.07    0.01 -0.01  0.00    0.47  0.10  0.88   

  ==> Thermochemistry Components <==

  Entropy, S
    Electronic S            0.000 [cal/(mol K)]        0.000 [J/(mol K)]       0.00000000 [mEh/K] (multiplicity = 1)
    Translational S        37.404 [cal/(mol K)]      156.497 [J/(mol K)]       0.05960663 [mEh/K] (mol. weight = 46.0055 [u], P = 101325.00 [Pa])
    Rotational S           21.150 [cal/(mol K)]       88.493 [J/(mol K)]       0.03370513 [mEh/K] (symmetry no. = 1)
    Vibrational S           0.637 [cal/(mol K)]        2.665 [J/(mol K)]       0.00101487 [mEh/K]
  Total S                  59.191 [cal/(mol K)]      247.655 [J/(mol K)]       0.09432662 [mEh/K]
  Correction S              0.000 [cal/(mol K)]        0.000 [J/(mol K)]       0.00000000 [mEh/K]

  Constant volume heat capacity, Cv
    Electronic Cv           0.000 [cal/(mol K)]        0.000 [J/(mol K)]       0.00000000 [mEh/K]
    Translational Cv        2.981 [cal/(mol K)]       12.472 [J/(mol K)]       0.00475022 [mEh/K]
    Rotational Cv           2.981 [cal/(mol K)]       12.472 [J/(mol K)]       0.00475022 [mEh/K]
    Vibrational Cv          2.064 [cal/(mol K)]        8.635 [J/(mol K)]       0.00328885 [mEh/K]
  Total Cv                  8.025 [cal/(mol K)]       33.578 [J/(mol K)]       0.01278929 [mEh/K]
  Correction Cv             0.000 [cal/(mol K)]        0.000 [J/(mol K)]       0.00000000 [mEh/K]

  Constant pressure heat capacity, Cp
    Electronic Cp           0.000 [cal/(mol K)]        0.000 [J/(mol K)]       0.00000000 [mEh/K]
    Translational Cp        4.968 [cal/(mol K)]       20.786 [J/(mol K)]       0.00791704 [mEh/K]
    Rotational Cp           2.981 [cal/(mol K)]       12.472 [J/(mol K)]       0.00475022 [mEh/K]
    Vibrational Cp          2.064 [cal/(mol K)]        8.635 [J/(mol K)]       0.00328885 [mEh/K]
  Total Cp                 10.013 [cal/(mol K)]       41.893 [J/(mol K)]       0.01595611 [mEh/K]
  Correction Cp             0.000 [cal/(mol K)]        0.000 [J/(mol K)]       0.00000000 [mEh/K]

  ==> Thermochemistry Energy Analysis <==

  Raw electronic energy, E0
  Total E0, Electronic energy at well bottom at 0 [K]                 -188.67465403 [Eh]

  Zero-point energy, ZPE_vib = Sum_i nu_i / 2
    Electronic ZPE          0.000 [kcal/mol]        0.000 [kJ/mol]       0.00000000 [Eh]
    Translational ZPE       0.000 [kcal/mol]        0.000 [kJ/mol]       0.00000000 [Eh]
    Rotational ZPE          0.000 [kcal/mol]        0.000 [kJ/mol]       0.00000000 [Eh]
    Vibrational ZPE        19.346 [kcal/mol]       80.943 [kJ/mol]       0.03082975 [Eh]        6766.346 [cm^-1]
  Correction ZPE           19.346 [kcal/mol]       80.943 [kJ/mol]       0.03082975 [Eh]        6766.346 [cm^-1]
  Total ZPE, Electronic energy at 0 [K]                               -188.64382428 [Eh]

  Thermal Energy, E (includes ZPE)
    Electronic E            0.000 [kcal/mol]        0.000 [kJ/mol]       0.00000000 [Eh]
    Translational E         0.889 [kcal/mol]        3.718 [kJ/mol]       0.00141628 [Eh]
    Rotational E            0.889 [kcal/mol]        3.718 [kJ/mol]       0.00141628 [Eh]
    Vibrational E          19.497 [kcal/mol]       81.573 [kJ/mol]       0.03106969 [Eh]
  Correction E             21.274 [kcal/mol]       89.010 [kJ/mol]       0.03390224 [Eh]
  Total E, Electronic energy at  298.15 [K]                           -188.64075178 [Eh]

  Enthalpy, H_trans = E_trans + k_B * T
    Electronic H            0.000 [kcal/mol]        0.000 [kJ/mol]       0.00000000 [Eh]
    Translational H         1.481 [kcal/mol]        6.197 [kJ/mol]       0.00236046 [Eh]
    Rotational H            0.889 [kcal/mol]        3.718 [kJ/mol]       0.00141628 [Eh]
    Vibrational H          19.497 [kcal/mol]       81.573 [kJ/mol]       0.03106969 [Eh]
  Correction H             21.866 [kcal/mol]       91.489 [kJ/mol]       0.03484643 [Eh]
  Total H, Enthalpy at  298.15 [K]                                    -188.63980760 [Eh]

  Gibbs free energy, G = H - T * S
    Electronic G            0.000 [kcal/mol]        0.000 [kJ/mol]       0.00000000 [Eh]
    Translational G        -9.671 [kcal/mol]      -40.462 [kJ/mol]      -0.01541125 [Eh]
    Rotational G           -5.417 [kcal/mol]      -22.666 [kJ/mol]      -0.00863290 [Eh]
    Vibrational G          19.307 [kcal/mol]       80.779 [kJ/mol]       0.03076710 [Eh]
  Correction G              4.219 [kcal/mol]       17.651 [kJ/mol]       0.00672295 [Eh]
  Total G, Free enthalpy at  298.15 [K]                               -188.66793108 [Eh]

    Psi4 stopped on: Tuesday, 26 March 2019 10:29AM
    Psi4 wall time for execution: 0:01:33.41

*** Psi4 exiting successfully. Buy a developer a beer!
