
    -----------------------------------------------------------------------
          Psi4: An Open-Source Ab Initio Electronic Structure Package
                               Psi4 1.2.1 release

                         Git: Rev {HEAD} 406f4de 


    R. M. Parrish, L. A. Burns, D. G. A. Smith, A. C. Simmonett,
    A. E. DePrince III, E. G. Hohenstein, U. Bozkaya, A. Yu. Sokolov,
    R. Di Remigio, R. M. Richard, J. F. Gonthier, A. M. James,
    H. R. McAlexander, A. Kumar, M. Saitow, X. Wang, B. P. Pritchard,
    P. Verma, H. F. Schaefer III, K. Patkowski, R. A. King, E. F. Valeev,
    F. A. Evangelista, J. M. Turney, T. D. Crawford, and C. D. Sherrill,
    J. Chem. Theory Comput. 13(7) pp 3185--3197 (2017).
    (doi: 10.1021/acs.jctc.7b00174)


                         Additional Contributions by
    P. Kraus, H. Kruse, M. H. Lechner, M. C. Schieber, and R. A. Shaw

    -----------------------------------------------------------------------


    Psi4 started on: Thursday, 17 January 2019 10:46AM

    Process ID: 8532
    Host:       localhost.localdomain
    PSIDATADIR: /root/psi4conda/share/psi4
    Memory:     500.0 MiB
    Threads:    1
    
  ==> Input File <==

--------------------------------------------------------------------------
molecule{
0 1
C -0.4380424513 -0.7493696234 0.2404853738
O -1.5076328731 -0.5320390319 -0.4822817985
H -0.5513805388 -1.1140625746 1.2700688296
H 0.4797461247  -1.1141376056 -0.2501359619
H 0.887007579   2.5450011635  -0.1583395683
C 1.0332212228  1.4652938919  -0.1151580244
H 1.2140026283  1.0752833278  -1.1224483803
H 1.884809949   1.2437477831  0.5289964708
O -0.1473001226 0.8822680634  0.4567112565
H -1.0836705182 0.7002076057  -0.2286611973 
}

set{
   basis 6-311++G(d,p)
   freeze_core True
   opt_type ts
}


set_num_threads(32)
optimize('m06-2x')
--------------------------------------------------------------------------
  Threads set to 32 by Python driver.
gradient() will perform analytic gradient computation.

*** tstart() called on localhost.localdomain
*** at Thu Jan 17 10:46:07 2019

   => Loading Basis Set <=

    Name: 6-311++G(D,P)
    Role: ORBITAL
    Keyword: BASIS
    atoms 1, 6         entry C          line   119 file /root/psi4conda/share/psi4/basis/6-311ppg_d_p_.gbs 
    atoms 2, 9         entry O          line   161 file /root/psi4conda/share/psi4/basis/6-311ppg_d_p_.gbs 
    atoms 3-5, 7-8, 10 entry H          line    42 file /root/psi4conda/share/psi4/basis/6-311ppg_d_p_.gbs 


         ---------------------------------------------------------
                                   SCF
            by Justin Turney, Rob Parrish, Andy Simmonett
                             and Daniel Smith
                              RKS Reference
                       32 Threads,    500 MiB Core
         ---------------------------------------------------------

  ==> Geometry <==

    Molecular point group: c1
    Full point group: C1

    Geometry (in Angstrom), charge = 0, multiplicity = 1:

       Center              X                  Y                   Z               Mass       
    ------------   -----------------  -----------------  -----------------  -----------------
         C           -0.172462858615    -1.032348835998     0.222194310120    12.000000000000
         O           -1.242053280415    -0.815018244498    -0.500572862180    15.994914619560
         H           -0.285800946115    -1.397041787198     1.251777765920     1.007825032070
         H            0.745325717385    -1.397116818198    -0.268427025580     1.007825032070
         H            1.152587171685     2.262021950902    -0.176630631980     1.007825032070
         C            1.298800815485     1.182314679302    -0.133449088080    12.000000000000
         H            1.479582220985     0.792304115202    -1.140739443980     1.007825032070
         H            2.150389541685     0.960768570502     0.510705407120     1.007825032070
         O            0.118279470085     0.599288850802     0.438420192820    15.994914619560
         H           -0.818090925515     0.417228393102    -0.246952260980     1.007825032070

  Running in c1 symmetry.

  Rotational constants: A =      0.71320  B =      0.15544  C =      0.14801 [cm^-1]
  Rotational constants: A =  21381.12240  B =   4659.95888  C =   4437.33522 [MHz]
  Nuclear repulsion =  133.267361097119561

  Charge       = 0
  Multiplicity = 1
  Electrons    = 34
  Nalpha       = 17
  Nbeta        = 17

  ==> Algorithm <==

  SCF Algorithm Type is DF.
  DIIS enabled.
  MOM disabled.
  Fractional occupation disabled.
  Guess Type is SAD.
  Energy threshold   = 1.00e-08
  Density threshold  = 1.00e-08
  Integral threshold = 0.00e+00

  ==> Primary Basis <==

  Basis Set: 6-311++G(D,P)
    Blend: 6-311++G(D,P)
    Number of shells: 70
    Number of basis function: 130
    Number of Cartesian functions: 134
    Spherical Harmonics?: true
    Max angular momentum: 2

  ==> DFT Potential <==

   => Composite Functional: M06-2X <= 

    Hybrid M06-2X Meta-GGA XC Functional

    Y. Zhao and D. G. Truhlar,  Theor. Chem. Acc., 120, 215, 2008


    Deriv               =              1
    GGA                 =           TRUE
    Meta                =           TRUE

    Exchange Hybrid     =           TRUE
    MP2 Hybrid          =          FALSE

   => Exchange Functionals <=

    1.0000   XC_HYB_MGGA_X_M06_2X

   => Exact (HF) Exchange <=

    0.5400               HF 

   => Correlation Functionals <=

    1.0000   XC_MGGA_C_M06_2X

   => Molecular Quadrature <=

    Radial Scheme       =       TREUTLER
    Pruning Scheme      =           FLAT
    Nuclear Scheme      =       TREUTLER

    BS radius alpha     =              1
    Pruning alpha       =              1
    Radial Points       =             75
    Spherical Points    =            302
    Total Points        =         226500
    Total Blocks        =           1748
    Max Points          =            256
    Max Functions       =            130

   => Loading Basis Set <=

    Name: (6-311++G(D,P) AUX)
    Role: JKFIT
    Keyword: DF_BASIS_SCF
    atoms 1, 6         entry C          line   162 file /root/psi4conda/share/psi4/basis/aug-cc-pvtz-jkfit.gbs 
    atoms 2, 9         entry O          line   286 file /root/psi4conda/share/psi4/basis/aug-cc-pvtz-jkfit.gbs 
    atoms 3-5, 7-8, 10 entry H          line    70 file /root/psi4conda/share/psi4/basis/aug-cc-pvtz-jkfit.gbs 

  ==> Pre-Iterations <==

   -------------------------------------------------------
    Irrep   Nso     Nmo     Nalpha   Nbeta   Ndocc  Nsocc
   -------------------------------------------------------
     A        130     130       0       0       0       0
   -------------------------------------------------------
    Total     130     130      17      17      17       0
   -------------------------------------------------------

  ==> Integral Setup <==

  DFHelper Memory: AOs need 0.117 [GiB]; user supplied 0.366 [GiB]. Using in-core AOs.

  ==> MemDFJK: Density-Fitted J/K Matrices <==

    J tasked:                   Yes
    K tasked:                   Yes
    wK tasked:                   No
    OpenMP threads:              32
    Memory (MB):                375
    Algorithm:                 Core
    Schwarz Cutoff:           1E-12
    Mask sparsity (%):       1.1834
    Fitting Condition:        1E-12

   => Auxiliary Basis Set <=

  Basis Set: (6-311++G(D,P) AUX)
    Blend: AUG-CC-PVTZ-JKFIT
    Number of shells: 204
    Number of basis function: 692
    Number of Cartesian functions: 854
    Spherical Harmonics?: true
    Max angular momentum: 4

  Minimum eigenvalue in the overlap matrix is 5.6095311130E-04.
  Using Symmetric Orthogonalization.

  SCF Guess: Superposition of Atomic Densities via on-the-fly atomic UHF.

  ==> Iterations <==

                           Total Energy        Delta E     RMS |[F,P]|

   @DF-RKS iter   0:  -230.90715839495729   -2.30907e+02   1.01210e-01 
   @DF-RKS iter   1:  -230.02853895958987    8.78619e-01   1.35058e-02 
   @DF-RKS iter   2:  -229.92987554387389    9.86634e-02   1.95719e-02 DIIS
   @DF-RKS iter   3:  -230.14266883635628   -2.12793e-01   2.21765e-03 DIIS
   @DF-RKS iter   4:  -230.14471794832249   -2.04911e-03   1.15207e-03 DIIS
   @DF-RKS iter   5:  -230.14530141992554   -5.83472e-04   3.67279e-04 DIIS
   @DF-RKS iter   6:  -230.14535910301890   -5.76831e-05   1.00843e-04 DIIS
   @DF-RKS iter   7:  -230.14536622856451   -7.12555e-06   2.16899e-05 DIIS
   @DF-RKS iter   8:  -230.14536681459850   -5.86034e-07   8.72618e-06 DIIS
   @DF-RKS iter   9:  -230.14536686047055   -4.58720e-08   2.03495e-06 DIIS
   @DF-RKS iter  10:  -230.14536686565901   -5.18847e-09   8.04497e-07 DIIS
   @DF-RKS iter  11:  -230.14536686615804   -4.99028e-10   9.84413e-08 DIIS
   @DF-RKS iter  12:  -230.14536686619255   -3.45040e-11   2.57564e-08 DIIS
   @DF-RKS iter  13:  -230.14536686619385   -1.30740e-12   7.11320e-09 DIIS

  ==> Post-Iterations <==

    Orbital Energies [Eh]
    ---------------------

    Doubly Occupied:                                                      

       1A    -19.678451     2A    -19.581578     3A    -10.654612  
       4A    -10.610030     5A     -1.209386     6A     -1.100862  
       7A     -0.814129     8A     -0.740534     9A     -0.626189  
      10A     -0.580960    11A     -0.555341    12A     -0.517004  
      13A     -0.492446    14A     -0.446315    15A     -0.434587  
      16A     -0.348366    17A     -0.323790  

    Virtual:                                                              

      18A     -0.007979    19A      0.012757    20A      0.020638  
      21A      0.021936    22A      0.039511    23A      0.048048  
      24A      0.057782    25A      0.071468    26A      0.080282  
      27A      0.104532    28A      0.114024    29A      0.117797  
      30A      0.121876    31A      0.134880    32A      0.145160  
      33A      0.188507    34A      0.196035    35A      0.202311  
      36A      0.212192    37A      0.223300    38A      0.235635  
      39A      0.251359    40A      0.270608    41A      0.277306  
      42A      0.306869    43A      0.314109    44A      0.327880  
      45A      0.335121    46A      0.341845    47A      0.395401  
      48A      0.424078    49A      0.469277    50A      0.477739  
      51A      0.529234    52A      0.531287    53A      0.557394  
      54A      0.606913    55A      0.654646    56A      0.663616  
      57A      0.682258    58A      0.694140    59A      0.709078  
      60A      0.723796    61A      0.916531    62A      0.978343  
      63A      1.020082    64A      1.033788    65A      1.075533  
      66A      1.127418    67A      1.200552    68A      1.204217  
      69A      1.241220    70A      1.252841    71A      1.298067  
      72A      1.363883    73A      1.467946    74A      1.486966  
      75A      1.533751    76A      1.545520    77A      1.565770  
      78A      1.594942    79A      1.600905    80A      1.652992  
      81A      1.668408    82A      1.704911    83A      1.719040  
      84A      1.755420    85A      1.776119    86A      1.820732  
      87A      1.908488    88A      1.991356    89A      2.006463  
      90A      2.065281    91A      2.146744    92A      2.183536  
      93A      2.329742    94A      2.425052    95A      2.453028  
      96A      2.494550    97A      2.520298    98A      2.537145  
      99A      2.541055   100A      2.580981   101A      2.599613  
     102A      2.707600   103A      2.772183   104A      2.859181  
     105A      2.904734   106A      2.926075   107A      2.986618  
     108A      3.105357   109A      3.162146   110A      3.198040  
     111A      3.295793   112A      3.477527   113A      3.569683  
     114A      3.713660   115A      3.754979   116A      3.800366  
     117A      3.830624   118A      3.919194   119A      4.062342  
     120A      4.125898   121A      5.196363   122A      5.229777  
     123A      5.264043   124A      5.290587   125A      5.600101  
     126A      5.750906   127A     23.900937   128A     23.963088  
     129A     49.973783   130A     50.104060  

    Final Occupation by Irrep:
              A 
    DOCC [    17 ]

  Energy converged.

  @DF-RKS Final Energy:  -230.14536686619385

   => Energetics <=

    Nuclear Repulsion Energy =            133.2673610971195615
    One-Electron Energy =                -577.4095104395930775
    Two-Electron Energy =                 228.5360789459128910
    DFT Exchange-Correlation Energy =     -14.5392964696332143
    Empirical Dispersion Energy =           0.0000000000000000
    VV10 Nonlocal Energy =                  0.0000000000000000
    Total Energy =                       -230.1453668661938536



Properties will be evaluated at   0.000000,   0.000000,   0.000000 [a0]

Properties computed using the SCF density matrix

  Nuclear Dipole Moment: [e a0]
     X:     4.1420      Y:     1.5347      Z:    -0.0662

  Electronic Dipole Moment: [e a0]
     X:    -2.7064      Y:    -1.0223      Z:     0.2956

  Dipole Moment: [e a0]
     X:     1.4356      Y:     0.5124      Z:     0.2294     Total:     1.5415

  Dipole Moment: [D]
     X:     3.6489      Y:     1.3025      Z:     0.5831     Total:     3.9180


*** tstop() called on localhost.localdomain at Thu Jan 17 10:46:12 2019
Module time:
	user time   =     124.60 seconds =       2.08 minutes
	system time =       4.25 seconds =       0.07 minutes
	total time  =          5 seconds =       0.08 minutes
Total time:
	user time   =     124.60 seconds =       2.08 minutes
	system time =       4.25 seconds =       0.07 minutes
	total time  =          5 seconds =       0.08 minutes

*** tstart() called on localhost.localdomain
*** at Thu Jan 17 10:46:12 2019


         ------------------------------------------------------------
                                   SCF GRAD                          
                          Rob Parrish, Justin Turney,                
                       Andy Simmonett, and Alex Sokolov              
         ------------------------------------------------------------

  ==> Geometry <==

    Molecular point group: c1
    Full point group: C1

    Geometry (in Angstrom), charge = 0, multiplicity = 1:

       Center              X                  Y                   Z               Mass       
    ------------   -----------------  -----------------  -----------------  -----------------
         C           -0.172462858615    -1.032348835998     0.222194310120    12.000000000000
         O           -1.242053280415    -0.815018244498    -0.500572862180    15.994914619560
         H           -0.285800946115    -1.397041787198     1.251777765920     1.007825032070
         H            0.745325717385    -1.397116818198    -0.268427025580     1.007825032070
         H            1.152587171685     2.262021950902    -0.176630631980     1.007825032070
         C            1.298800815485     1.182314679302    -0.133449088080    12.000000000000
         H            1.479582220985     0.792304115202    -1.140739443980     1.007825032070
         H            2.150389541685     0.960768570502     0.510705407120     1.007825032070
         O            0.118279470085     0.599288850802     0.438420192820    15.994914619560
         H           -0.818090925515     0.417228393102    -0.246952260980     1.007825032070

  Nuclear repulsion =  133.267361097119561

  ==> Basis Set <==

  Basis Set: 6-311++G(D,P)
    Blend: 6-311++G(D,P)
    Number of shells: 70
    Number of basis function: 130
    Number of Cartesian functions: 134
    Spherical Harmonics?: true
    Max angular momentum: 2

  ==> DFJKGrad: Density-Fitted SCF Gradients <==

    Gradient:                    1
    J tasked:                  Yes
    K tasked:                  Yes
    wK tasked:                  No
    OpenMP threads:             32
    Integrals threads:          32
    Memory (MB):               375
    Schwarz Cutoff:          0E+00
    Fitting Condition:       1E-12

   => Auxiliary Basis Set <=

  Basis Set: (6-311++G(D,P) AUX)
    Blend: AUG-CC-PVTZ-JKFIT
    Number of shells: 204
    Number of basis function: 692
    Number of Cartesian functions: 854
    Spherical Harmonics?: true
    Max angular momentum: 4

  ==> DFT Potential <==

   => Composite Functional: M06-2X <= 

    Hybrid M06-2X Meta-GGA XC Functional

    Y. Zhao and D. G. Truhlar,  Theor. Chem. Acc., 120, 215, 2008


    Deriv               =              1
    GGA                 =           TRUE
    Meta                =           TRUE

    Exchange Hybrid     =           TRUE
    MP2 Hybrid          =          FALSE

   => Exchange Functionals <=

    1.0000   XC_HYB_MGGA_X_M06_2X

   => Exact (HF) Exchange <=

    0.5400               HF 

   => Correlation Functionals <=

    1.0000   XC_MGGA_C_M06_2X

   => Molecular Quadrature <=

    Radial Scheme       =       TREUTLER
    Pruning Scheme      =           FLAT
    Nuclear Scheme      =       TREUTLER

    BS radius alpha     =              1
    Pruning alpha       =              1
    Radial Points       =             75
    Spherical Points    =            302
    Total Points        =         226500
    Total Blocks        =           1748
    Max Points          =            256
    Max Functions       =            130


  -Total Gradient:
     Atom            X                  Y                   Z
    ------   -----------------  -----------------  -----------------
       1        0.000705744466    -0.010370886159     0.000390359823
       2       -0.004580572781    -0.002077444391    -0.002177273250
       3        0.000448782468    -0.001125635405     0.001436456722
       4        0.001095376482    -0.001182252051     0.000015540576
       5        0.000071307217     0.000940164851    -0.000085900024
       6        0.004202616352     0.002613880950    -0.002012818212
       7        0.000872351742     0.000246211333    -0.000807461729
       8        0.000870145503     0.000295521201     0.000330480109
       9       -0.002638057249     0.005818854089     0.004265128066
      10       -0.000946730793     0.004806923502    -0.001296532512


*** tstop() called on localhost.localdomain at Thu Jan 17 10:46:15 2019
Module time:
	user time   =      61.55 seconds =       1.03 minutes
	system time =       3.69 seconds =       0.06 minutes
	total time  =          3 seconds =       0.05 minutes
Total time:
	user time   =     186.21 seconds =       3.10 minutes
	system time =       7.95 seconds =       0.13 minutes
	total time  =          8 seconds =       0.13 minutes

			-----------------------------------------
			 OPTKING 2.0: for geometry optimizations 
			  - R.A. King,  Bethel University        
			-----------------------------------------

	Internal coordinates to be generated automatically.
	Detected frag 1 with atoms:  1 2 3 4 5 6 7 8 9 10
	---Fragment 1 Bond Connectivity---
	 1 : 2 3 4 9
	 2 : 1
	 3 : 1
	 4 : 1
	 5 : 6
	 6 : 5 7 8 9
	 7 : 6
	 8 : 6
	 9 : 1 6 10
	 10 : 9

	---Fragment 1 Geometry and Gradient---
	 C          -0.3259075709       -1.9508565736        0.4198863944
	 O          -2.3471405424       -1.5401612754       -0.9459456191
	 H          -0.5400855167       -2.6400263740        2.3655171568
	 H           1.4084614857       -2.6401681620       -0.5072535650
	 H           2.1780740988        4.2746019938       -0.3337835211
	 C           2.4543778424        2.2342509468       -0.2521822292
	 H           2.7960051887        1.4972377917       -2.1556851381
	 H           4.0636473128        1.8155894753        0.9650933540
	 O           0.2235158056        1.1324918025        0.8284940956
	 H          -1.5459678010        0.7884473978       -0.4666721411
	             0.0007057445       -0.0103708862        0.0003903598
	            -0.0045805728       -0.0020774444       -0.0021772733
	             0.0004487825       -0.0011256354        0.0014364567
	             0.0010953765       -0.0011822521        0.0000155406
	             0.0000713072        0.0009401649       -0.0000859000
	             0.0042026164        0.0026138809       -0.0020128182
	             0.0008723517        0.0002462113       -0.0008074617
	             0.0008701455        0.0002955212        0.0003304801
	            -0.0026380572        0.0058188541        0.0042651281
	            -0.0009467308        0.0048069235       -0.0012965325

	Previous optimization step data not found.  Starting new optimization.

	---Fragment 1 Intrafragment Coordinates---
	 - Coordinate -           - BOHR/RAD -       - ANG/DEG -
	 H(2,10)          =         2.508784	       1.327592
	 R(1,2)           =         2.473773	       1.309064
	 R(1,3)           =         2.075164	       1.098130
	 R(1,4)           =         2.083933	       1.102770
	 R(1,9)           =         3.158459	       1.671385
	 R(5,6)           =         2.060591	       1.090418
	 R(6,7)           =         2.069594	       1.095182
	 R(6,8)           =         2.060773	       1.090514
	 R(6,9)           =         2.712652	       1.435474
	 R(9,10)          =         2.219661	       1.174594
	 B(1,9,6)         =         2.080611	     119.210255
	 B(1,9,10)        =         1.196656	      68.563350
	 B(2,1,3)         =         2.081129	     119.239904
	 B(2,1,4)         =         2.082065	     119.293517
	 B(2,1,9)         =         1.622306	      92.951304
	 B(3,1,4)         =         1.974878	     113.152155
	 B(3,1,9)         =         1.793498	     102.759890
	 B(4,1,9)         =         1.808726	     103.632354
	 B(5,6,7)         =         1.915936	     109.775052
	 B(5,6,8)         =         1.906322	     109.224178
	 B(5,6,9)         =         1.883538	     107.918784
	 B(6,9,10)        =         2.078415	     119.084382
	 B(7,6,8)         =         1.919876	     110.000778
	 B(7,6,9)         =         1.936414	     110.948339
	 B(8,6,9)         =         1.901148	     108.927769
	 D(1,9,6,5)       =         2.820439	     161.599233
	 D(1,9,6,7)       =         0.720804	      41.299006
	 D(1,9,6,8)       =        -1.395036	     -79.929651
	 D(2,1,9,6)       =        -1.995825	    -114.352342
	 D(2,1,9,10)      =        -0.036551	      -2.094239
	 D(3,1,9,6)       =         2.177683	     124.772018
	 D(3,1,9,10)      =        -2.146229	    -122.969879
	 D(4,1,9,6)       =         0.117893	       6.754763
	 D(4,1,9,10)      =         2.077166	     119.012866
	 D(5,6,9,10)      =         1.418580	      81.278637
	 D(7,6,9,10)      =        -0.681055	     -39.021589
	 D(8,6,9,10)      =        -2.796894	    -160.250246

	Current energy   :      -230.1453668662

	Generating empirical Hessian (Schlegel '84) for each fragment.
	Taking PRFO optimization step.
	Maximizing along 1 lowest eigenvalue of Hessian.

 RFO min eigenvalues
 -0.001607 -0.000000 -0.000000 -0.000000 -0.000000 -0.000000 -0.000000 -0.000000
  0.000000  0.000000  0.000000  0.000000  0.000000  0.000269  0.002431  0.031617
  0.052547  0.069804  0.073414  0.086779  0.092037  0.103387  0.160000  0.160000
  0.160000  0.160000  0.160030  0.201914  0.230178  0.265071  0.333782  0.338906
  0.342208  0.347535  0.347646  0.402275  0.645163

 RFO max eigenvalues
 -0.000000  0.000000
	|RFO target step|  :        0.2458271563
	RFO gradient       :       -0.0065377149
	RFO hessian        :        0.0250269120
	Projected Delta(E) :       -0.0008024542

	Back-transformation to cartesian coordinates...
	Could not converge backtransformation.
	Using first guess instead.

	--- Internal Coordinate Step in ANG or DEG, aJ/ANG or AJ/DEG ---
	 ---------------------------------------------------------------------------
	   Coordinate                Previous        Force       Change         New 
	   ----------                --------       ------       ------       ------
	    1 H(2,10)         =      1.327592    -0.034290    -0.050973     1.276618
	    2 R(1,2)          =      1.309064    -0.030899    -0.001305     1.307759
	    3 R(1,3)          =      1.098130    -0.013763    -0.001228     1.096901
	    4 R(1,4)          =      1.102770    -0.010379    -0.000809     1.101961
	    5 R(1,9)          =      1.671385    -0.088168    -0.031042     1.640343
	    6 R(5,6)          =      1.090418    -0.007479    -0.000929     1.089489
	    7 R(6,7)          =      1.095182    -0.006700    -0.000098     1.095084
	    8 R(6,8)          =      1.090514    -0.006785    -0.000167     1.090347
	    9 R(6,9)          =      1.435474    -0.063154    -0.009774     1.425699
	   10 R(9,10)         =      1.174594    -0.023856    -0.004453     1.170141
	   11 B(1,9,6)        =    119.210255    -0.000202    -0.916727   118.293528
	   12 B(1,9,10)       =     68.563350    -0.000027    -1.562787    67.000563
	   13 B(2,1,3)        =    119.239904    -0.000021     0.110103   119.350007
	   14 B(2,1,4)        =    119.293517    -0.000070    -0.323344   118.970172
	   15 B(2,1,9)        =     92.951304     0.000203     0.211610    93.162914
	   16 B(3,1,4)        =    113.152155     0.000060     0.442375   113.594530
	   17 B(3,1,9)        =    102.759890    -0.000055    -0.202621   102.557269
	   18 B(4,1,9)        =    103.632354    -0.000103    -0.459696   103.172658
	   19 B(5,6,7)        =    109.775052     0.000043     0.207739   109.982790
	   20 B(5,6,8)        =    109.224178     0.000036     0.280451   109.504629
	   21 B(5,6,9)        =    107.918784     0.000002     0.005422   107.924206
	   22 B(6,9,10)       =    119.084382     0.000013     0.046582   119.130964
	   23 B(7,6,8)        =    110.000778     0.000047     0.134633   110.135411
	   24 B(7,6,9)        =    110.948339    -0.000098    -0.494397   110.453942
	   25 B(8,6,9)        =    108.927769    -0.000030    -0.131344   108.796425
	   26 D(1,9,6,5)      =    161.599233    -0.000015     0.993717   162.592949
	   27 D(1,9,6,7)      =     41.299006    -0.000014     1.030393    42.329400
	   28 D(1,9,6,8)      =    -79.929651    -0.000009     1.258641   -78.671010
	   29 D(2,1,9,6)      =   -114.352342     0.000004     4.499972  -109.852369
	   30 D(2,1,9,10)     =     -2.094239     0.000014     4.087749     1.993509
	   31 D(3,1,9,6)      =    124.772018    -0.000002     4.362773   129.134791
	   32 D(3,1,9,10)     =   -122.969879     0.000008     3.950549  -119.019330
	   33 D(4,1,9,6)      =      6.754763    -0.000003     4.132339    10.887102
	   34 D(4,1,9,10)     =    119.012866     0.000007     3.720115   122.732981
	   35 D(5,6,9,10)     =     81.278637     0.000013     3.319272    84.597909
	   36 D(7,6,9,10)     =    -39.021589     0.000014     3.355949   -35.665640
	   37 D(8,6,9,10)     =   -160.250246     0.000019     3.584196  -156.666050
	 ---------------------------------------------------------------------------
	Successfully symmetrized geometry.

  ==> Convergence Check <==

  Measures of convergence in internal coordinates in au.
  Criteria marked as inactive (o), active & met (*), and active & unmet ( ).
  --------------------------------------------------------------------------------------------- ~
   Step     Total Energy     Delta E     MAX Force     RMS Force      MAX Disp      RMS Disp    ~
  --------------------------------------------------------------------------------------------- ~
    Convergence Criteria    1.00e-06 *    3.00e-04 *             o    1.20e-03 *             o  ~
  --------------------------------------------------------------------------------------------- ~
      1    -230.14536687   -2.30e+02      1.07e-02      2.58e-03 o    9.63e-02      3.94e-02 o  ~
  ---------------------------------------------------------------------------------------------

	Writing optimization data to binary file.
	Structure for next step:
	Cartesian Geometry (in Angstrom)
	    C    -0.1579504684  -1.0070305030   0.2242834802
	    O    -1.1852611536  -0.7888203503  -0.5549794674
	    H    -0.3254816792  -1.3696609585   1.2458629337
	    H     0.7839224587  -1.3649567859  -0.2219030138
	    H     1.1517388466   2.2493334358  -0.1537947057
	    C     1.2836484379   1.1679700795  -0.1383221824
	    H     1.4180900179   0.7927321465  -1.1582881492
	    H     2.1513891856   0.9157673350   0.4718220632
	    O     0.1219659435   0.5926854968   0.4551087422
	    H    -0.8155046624   0.3843809781  -0.2134633376
			--------------------------
			 OPTKING Finished Execution 
			--------------------------

    Structure for next step:
    Molecular point group: c1
    Full point group: C1

    Geometry (in Angstrom), charge = 0, multiplicity = 1:

    C           -0.172447728801    -1.013708643479     0.233888834761
    O           -1.199758414017    -0.795498490728    -0.545374112805
    H           -0.339978939629    -1.376339098954     1.255468288354
    H            0.769425198325    -1.371634926301    -0.212297659224
    H            1.137241586159     2.242655295336    -0.144189351087
    C            1.269151177512     1.161291939110    -0.128716827815
    H            1.403592757486     0.786054006018    -1.148682794561
    H            2.136891925212     0.909089194557     0.481427417818
    O            0.107468683066     0.586007356387     0.464714096814
    H           -0.830001922870     0.377702837651    -0.203857983011

gradient() will perform analytic gradient computation.

*** tstart() called on localhost.localdomain
*** at Thu Jan 17 10:46:15 2019

   => Loading Basis Set <=

    Name: 6-311++G(D,P)
    Role: ORBITAL
    Keyword: BASIS
    atoms 1, 6         entry C          line   119 file /root/psi4conda/share/psi4/basis/6-311ppg_d_p_.gbs 
    atoms 2, 9         entry O          line   161 file /root/psi4conda/share/psi4/basis/6-311ppg_d_p_.gbs 
    atoms 3-5, 7-8, 10 entry H          line    42 file /root/psi4conda/share/psi4/basis/6-311ppg_d_p_.gbs 


         ---------------------------------------------------------
                                   SCF
            by Justin Turney, Rob Parrish, Andy Simmonett
                             and Daniel Smith
                              RKS Reference
                       32 Threads,    500 MiB Core
         ---------------------------------------------------------

  ==> Geometry <==

    Molecular point group: c1
    Full point group: C1

    Geometry (in Angstrom), charge = 0, multiplicity = 1:

       Center              X                  Y                   Z               Mass       
    ------------   -----------------  -----------------  -----------------  -----------------
         C           -0.172447728801    -1.013708643479     0.233888834761    12.000000000000
         O           -1.199758414017    -0.795498490728    -0.545374112805    15.994914619560
         H           -0.339978939629    -1.376339098954     1.255468288354     1.007825032070
         H            0.769425198325    -1.371634926301    -0.212297659224     1.007825032070
         H            1.137241586159     2.242655295336    -0.144189351087     1.007825032070
         C            1.269151177512     1.161291939110    -0.128716827815    12.000000000000
         H            1.403592757486     0.786054006018    -1.148682794561     1.007825032070
         H            2.136891925212     0.909089194557     0.481427417818     1.007825032070
         O            0.107468683066     0.586007356387     0.464714096814    15.994914619560
         H           -0.830001922870     0.377702837651    -0.203857983011     1.007825032070

  Running in c1 symmetry.

  Rotational constants: A =      0.70074  B =      0.16119  C =      0.15380 [cm^-1]
  Rotational constants: A =  21007.57334  B =   4832.47801  C =   4610.81595 [MHz]
  Nuclear repulsion =  134.686129535863813

  Charge       = 0
  Multiplicity = 1
  Electrons    = 34
  Nalpha       = 17
  Nbeta        = 17

  ==> Algorithm <==

  SCF Algorithm Type is DF.
  DIIS enabled.
  MOM disabled.
  Fractional occupation disabled.
  Guess Type is READ.
  Energy threshold   = 1.00e-08
  Density threshold  = 1.00e-08
  Integral threshold = 0.00e+00

  ==> Primary Basis <==

  Basis Set: 6-311++G(D,P)
    Blend: 6-311++G(D,P)
    Number of shells: 70
    Number of basis function: 130
    Number of Cartesian functions: 134
    Spherical Harmonics?: true
    Max angular momentum: 2

  ==> DFT Potential <==

   => Composite Functional: M06-2X <= 

    Hybrid M06-2X Meta-GGA XC Functional

    Y. Zhao and D. G. Truhlar,  Theor. Chem. Acc., 120, 215, 2008


    Deriv               =              1
    GGA                 =           TRUE
    Meta                =           TRUE

    Exchange Hybrid     =           TRUE
    MP2 Hybrid          =          FALSE

   => Exchange Functionals <=

    1.0000   XC_HYB_MGGA_X_M06_2X

   => Exact (HF) Exchange <=

    0.5400               HF 

   => Correlation Functionals <=

    1.0000   XC_MGGA_C_M06_2X

   => Molecular Quadrature <=

    Radial Scheme       =       TREUTLER
    Pruning Scheme      =           FLAT
    Nuclear Scheme      =       TREUTLER

    BS radius alpha     =              1
    Pruning alpha       =              1
    Radial Points       =             75
    Spherical Points    =            302
    Total Points        =         226500
    Total Blocks        =           1748
    Max Points          =            256
    Max Functions       =            130

   => Loading Basis Set <=

    Name: (6-311++G(D,P) AUX)
    Role: JKFIT
    Keyword: DF_BASIS_SCF
    atoms 1, 6         entry C          line   162 file /root/psi4conda/share/psi4/basis/aug-cc-pvtz-jkfit.gbs 
    atoms 2, 9         entry O          line   286 file /root/psi4conda/share/psi4/basis/aug-cc-pvtz-jkfit.gbs 
    atoms 3-5, 7-8, 10 entry H          line    70 file /root/psi4conda/share/psi4/basis/aug-cc-pvtz-jkfit.gbs 

  Reading orbitals from file 180, no projection.

  ==> Pre-Iterations <==

   -------------------------------------------------------
    Irrep   Nso     Nmo     Nalpha   Nbeta   Ndocc  Nsocc
   -------------------------------------------------------
     A        130     130       0       0       0       0
   -------------------------------------------------------
    Total     130     130      17      17      17       0
   -------------------------------------------------------

  ==> Integral Setup <==

  DFHelper Memory: AOs need 0.117 [GiB]; user supplied 0.366 [GiB]. Using in-core AOs.

  ==> MemDFJK: Density-Fitted J/K Matrices <==

    J tasked:                   Yes
    K tasked:                   Yes
    wK tasked:                   No
    OpenMP threads:              32
    Memory (MB):                375
    Algorithm:                 Core
    Schwarz Cutoff:           1E-12
    Mask sparsity (%):       1.0533
    Fitting Condition:        1E-12

   => Auxiliary Basis Set <=

  Basis Set: (6-311++G(D,P) AUX)
    Blend: AUG-CC-PVTZ-JKFIT
    Number of shells: 204
    Number of basis function: 692
    Number of Cartesian functions: 854
    Spherical Harmonics?: true
    Max angular momentum: 4

  Minimum eigenvalue in the overlap matrix is 5.4930421376E-04.
  Using Symmetric Orthogonalization.

  SCF Guess: Orbitals guess was supplied from a previous computation.

  ==> Iterations <==

                           Total Energy        Delta E     RMS |[F,P]|

   @DF-RKS iter   0:  -230.16207283934222   -2.30162e+02   3.59669e-03 
   @DF-RKS iter   1:  -230.14586607965708    1.62068e-02   4.79515e-04 
   @DF-RKS iter   2:  -230.14602851024810   -1.62431e-04   4.40219e-04 DIIS
   @DF-RKS iter   3:  -230.14608148281701   -5.29726e-05   1.72637e-04 DIIS
   @DF-RKS iter   4:  -230.14609708991901   -1.56071e-05   6.43704e-05 DIIS
   @DF-RKS iter   5:  -230.14609850684994   -1.41693e-06   1.31656e-05 DIIS
   @DF-RKS iter   6:  -230.14609863070331   -1.23853e-07   4.58184e-06 DIIS
   @DF-RKS iter   7:  -230.14609865145499   -2.07517e-08   1.87429e-06 DIIS
   @DF-RKS iter   8:  -230.14609865497809   -3.52310e-09   6.51723e-07 DIIS
   @DF-RKS iter   9:  -230.14609865520055   -2.22457e-10   1.15932e-07 DIIS
   @DF-RKS iter  10:  -230.14609865520853   -7.98650e-12   4.21605e-08 DIIS
   @DF-RKS iter  11:  -230.14609865521001   -1.47793e-12   8.61223e-09 DIIS

  ==> Post-Iterations <==

    Orbital Energies [Eh]
    ---------------------

    Doubly Occupied:                                                      

       1A    -19.676446     2A    -19.581954     3A    -10.654557  
       4A    -10.609111     5A     -1.220429     6A     -1.104495  
       7A     -0.816318     8A     -0.742461     9A     -0.631010  
      10A     -0.586319    11A     -0.556415    12A     -0.515742  
      13A     -0.494762    14A     -0.449355    15A     -0.434052  
      16A     -0.349676    17A     -0.326233  

    Virtual:                                                              

      18A     -0.007200    19A      0.013077    20A      0.020564  
      21A      0.023272    22A      0.041857    23A      0.048445  
      24A      0.059762    25A      0.072188    26A      0.080743  
      27A      0.107030    28A      0.116859    29A      0.120122  
      30A      0.123378    31A      0.135976    32A      0.145024  
      33A      0.188454    34A      0.199597    35A      0.206668  
      36A      0.213186    37A      0.222681    38A      0.236420  
      39A      0.254528    40A      0.272708    41A      0.276886  
      42A      0.308107    43A      0.313015    44A      0.328232  
      45A      0.335718    46A      0.344270    47A      0.396843  
      48A      0.428037    49A      0.467369    50A      0.480131  
      51A      0.531899    52A      0.541950    53A      0.559428  
      54A      0.610367    55A      0.656916    56A      0.663329  
      57A      0.681989    58A      0.694871    59A      0.705907  
      60A      0.722177    61A      0.914873    62A      0.973392  
      63A      1.018412    64A      1.037813    65A      1.070914  
      66A      1.133543    67A      1.189899    68A      1.206110  
      69A      1.238096    70A      1.255250    71A      1.304038  
      72A      1.361575    73A      1.466461    74A      1.474633  
      75A      1.539144    76A      1.555764    77A      1.565495  
      78A      1.599204    79A      1.609669    80A      1.657914  
      81A      1.676971    82A      1.709308    83A      1.726386  
      84A      1.757726    85A      1.781711    86A      1.840543  
      87A      1.916126    88A      1.991098    89A      2.024137  
      90A      2.075481    91A      2.150266    92A      2.183658  
      93A      2.332882    94A      2.428788    95A      2.453998  
      96A      2.499056    97A      2.523753    98A      2.538942  
      99A      2.547421   100A      2.590163   101A      2.610241  
     102A      2.730284   103A      2.775487   104A      2.853910  
     105A      2.923522   106A      2.944328   107A      2.993163  
     108A      3.126534   109A      3.177119   110A      3.205601  
     111A      3.301833   112A      3.481573   113A      3.623948  
     114A      3.725149   115A      3.771868   116A      3.813385  
     117A      3.841637   118A      3.953497   119A      4.064483  
     120A      4.147211   121A      5.207941   122A      5.231130  
     123A      5.275848   124A      5.325392   125A      5.621490  
     126A      5.758015   127A     23.903399   128A     23.966552  
     129A     49.978246   130A     50.106538  

    Final Occupation by Irrep:
              A 
    DOCC [    17 ]

  Energy converged.

  @DF-RKS Final Energy:  -230.14609865521001

   => Energetics <=

    Nuclear Repulsion Energy =            134.6861295358638131
    One-Electron Energy =                -580.1672106593198350
    Two-Electron Energy =                 229.8876642939187320
    DFT Exchange-Correlation Energy =     -14.5526818256727104
    Empirical Dispersion Energy =           0.0000000000000000
    VV10 Nonlocal Energy =                  0.0000000000000000
    Total Energy =                       -230.1460986552100110



Properties will be evaluated at   0.000000,   0.000000,   0.000000 [a0]

Properties computed using the SCF density matrix

  Nuclear Dipole Moment: [e a0]
     X:     4.0045      Y:     1.4685      Z:     0.0257

  Electronic Dipole Moment: [e a0]
     X:    -2.6406      Y:    -0.9824      Z:     0.2716

  Dipole Moment: [e a0]
     X:     1.3639      Y:     0.4861      Z:     0.2974     Total:     1.4781

  Dipole Moment: [D]
     X:     3.4666      Y:     1.2356      Z:     0.7558     Total:     3.7570


*** tstop() called on localhost.localdomain at Thu Jan 17 10:46:19 2019
Module time:
	user time   =     114.39 seconds =       1.91 minutes
	system time =       2.69 seconds =       0.04 minutes
	total time  =          4 seconds =       0.07 minutes
Total time:
	user time   =     301.90 seconds =       5.03 minutes
	system time =      10.77 seconds =       0.18 minutes
	total time  =         12 seconds =       0.20 minutes

*** tstart() called on localhost.localdomain
*** at Thu Jan 17 10:46:19 2019


         ------------------------------------------------------------
                                   SCF GRAD                          
                          Rob Parrish, Justin Turney,                
                       Andy Simmonett, and Alex Sokolov              
         ------------------------------------------------------------

  ==> Geometry <==

    Molecular point group: c1
    Full point group: C1

    Geometry (in Angstrom), charge = 0, multiplicity = 1:

       Center              X                  Y                   Z               Mass       
    ------------   -----------------  -----------------  -----------------  -----------------
         C           -0.172447728801    -1.013708643479     0.233888834761    12.000000000000
         O           -1.199758414017    -0.795498490728    -0.545374112805    15.994914619560
         H           -0.339978939629    -1.376339098954     1.255468288354     1.007825032070
         H            0.769425198325    -1.371634926301    -0.212297659224     1.007825032070
         H            1.137241586159     2.242655295336    -0.144189351087     1.007825032070
         C            1.269151177512     1.161291939110    -0.128716827815    12.000000000000
         H            1.403592757486     0.786054006018    -1.148682794561     1.007825032070
         H            2.136891925212     0.909089194557     0.481427417818     1.007825032070
         O            0.107468683066     0.586007356387     0.464714096814    15.994914619560
         H           -0.830001922870     0.377702837651    -0.203857983011     1.007825032070

  Nuclear repulsion =  134.686129535863813

  ==> Basis Set <==

  Basis Set: 6-311++G(D,P)
    Blend: 6-311++G(D,P)
    Number of shells: 70
    Number of basis function: 130
    Number of Cartesian functions: 134
    Spherical Harmonics?: true
    Max angular momentum: 2

  ==> DFJKGrad: Density-Fitted SCF Gradients <==

    Gradient:                    1
    J tasked:                  Yes
    K tasked:                  Yes
    wK tasked:                  No
    OpenMP threads:             32
    Integrals threads:          32
    Memory (MB):               375
    Schwarz Cutoff:          0E+00
    Fitting Condition:       1E-12

   => Auxiliary Basis Set <=

  Basis Set: (6-311++G(D,P) AUX)
    Blend: AUG-CC-PVTZ-JKFIT
    Number of shells: 204
    Number of basis function: 692
    Number of Cartesian functions: 854
    Spherical Harmonics?: true
    Max angular momentum: 4

  ==> DFT Potential <==

   => Composite Functional: M06-2X <= 

    Hybrid M06-2X Meta-GGA XC Functional

    Y. Zhao and D. G. Truhlar,  Theor. Chem. Acc., 120, 215, 2008


    Deriv               =              1
    GGA                 =           TRUE
    Meta                =           TRUE

    Exchange Hybrid     =           TRUE
    MP2 Hybrid          =          FALSE

   => Exchange Functionals <=

    1.0000   XC_HYB_MGGA_X_M06_2X

   => Exact (HF) Exchange <=

    0.5400               HF 

   => Correlation Functionals <=

    1.0000   XC_MGGA_C_M06_2X

   => Molecular Quadrature <=

    Radial Scheme       =       TREUTLER
    Pruning Scheme      =           FLAT
    Nuclear Scheme      =       TREUTLER

    BS radius alpha     =              1
    Pruning alpha       =              1
    Radial Points       =             75
    Spherical Points    =            302
    Total Points        =         226500
    Total Blocks        =           1748
    Max Points          =            256
    Max Functions       =            130


  -Total Gradient:
     Atom            X                  Y                   Z
    ------   -----------------  -----------------  -----------------
       1       -0.012614485602    -0.009429671192    -0.003968612316
       2        0.006002403791    -0.001025818997     0.001195419606
       3        0.000275773331     0.000787103875     0.001305745121
       4        0.001530953431     0.001948823682    -0.000386721887
       5       -0.000217125845     0.000429606908     0.000130965095
       6        0.000802860879     0.002569450267    -0.000150496435
       7       -0.000070406441    -0.000313113660    -0.000312418063
       8        0.000014787444    -0.000443964689     0.000626818259
       9       -0.005725842142     0.005196936874    -0.009543473543
      10        0.009986331226     0.000293844364     0.011345972434


*** tstop() called on localhost.localdomain at Thu Jan 17 10:46:22 2019
Module time:
	user time   =      62.06 seconds =       1.03 minutes
	system time =       3.81 seconds =       0.06 minutes
	total time  =          3 seconds =       0.05 minutes
Total time:
	user time   =     364.02 seconds =       6.07 minutes
	system time =      14.58 seconds =       0.24 minutes
	total time  =         15 seconds =       0.25 minutes

			-----------------------------------------
			 OPTKING 2.0: for geometry optimizations 
			  - R.A. King,  Bethel University        
			-----------------------------------------

	Previous internal coordinate definitions found.
	---Fragment 1 Geometry and Gradient---
	 C          -0.3258789797       -1.9156317147        0.4419858432
	 O          -2.2672148281       -1.5032742866       -1.0306077132
	 H          -0.6424670868       -2.6009039630        2.3724912335
	 H           1.4540029046       -2.5920143650       -0.4011844346
	 H           2.1490751448        4.2380043187       -0.2724783848
	 C           2.3983481467        2.1945237252       -0.2432395533
	 H           2.6524059138        1.4854267970       -2.1706958953
	 H           4.0381405142        1.7179296081        0.9097659725
	 O           0.2030863789        1.1073934154        0.8781823731
	 H          -1.5684763240        0.7137549228       -0.3852357579
	            -0.0126144856       -0.0094296712       -0.0039686123
	             0.0060024038       -0.0010258190        0.0011954196
	             0.0002757733        0.0007871039        0.0013057451
	             0.0015309534        0.0019488237       -0.0003867219
	            -0.0002171258        0.0004296069        0.0001309651
	             0.0008028609        0.0025694503       -0.0001504964
	            -0.0000704064       -0.0003131137       -0.0003124181
	             0.0000147874       -0.0004439647        0.0006268183
	            -0.0057258421        0.0051969369       -0.0095434735
	             0.0099863312        0.0002938444        0.0113459724

	---Fragment 1 Intrafragment Coordinates---
	 - Coordinate -           - BOHR/RAD -       - ANG/DEG -
	 H(2,10)          =         2.412459	       1.276618
	 R(1,2)           =         2.471306	       1.307759
	 R(1,3)           =         2.072843	       1.096901
	 R(1,4)           =         2.082405	       1.101961
	 R(1,9)           =         3.099799	       1.640343
	 R(5,6)           =         2.058836	       1.089489
	 R(6,7)           =         2.069409	       1.095084
	 R(6,8)           =         2.060457	       1.090347
	 R(6,9)           =         2.694181	       1.425699
	 R(9,10)          =         2.211246	       1.170141
	 B(1,9,6)         =         2.064612	     118.293528
	 B(1,9,10)        =         1.169380	      67.000563
	 B(2,1,3)         =         2.083051	     119.350007
	 B(2,1,4)         =         2.076421	     118.970172
	 B(2,1,9)         =         1.626000	      93.162914
	 B(3,1,4)         =         1.982599	     113.594530
	 B(3,1,9)         =         1.789962	     102.557269
	 B(4,1,9)         =         1.800703	     103.172658
	 B(5,6,7)         =         1.919562	     109.982790
	 B(5,6,8)         =         1.911216	     109.504629
	 B(5,6,9)         =         1.883633	     107.924206
	 B(6,9,10)        =         2.079228	     119.130964
	 B(7,6,8)         =         1.922226	     110.135411
	 B(7,6,9)         =         1.927785	     110.453942
	 B(8,6,9)         =         1.898856	     108.796425
	 D(1,9,6,5)       =         2.837782	     162.592949
	 D(1,9,6,7)       =         0.738787	      42.329400
	 D(1,9,6,8)       =        -1.373068	     -78.671010
	 D(2,1,9,6)       =        -1.917286	    -109.852369
	 D(2,1,9,10)      =         0.034793	       1.993509
	 D(3,1,9,6)       =         2.253827	     129.134791
	 D(3,1,9,10)      =        -2.077279	    -119.019330
	 D(4,1,9,6)       =         0.190016	      10.887102
	 D(4,1,9,10)      =         2.142095	     122.732981
	 D(5,6,9,10)      =         1.476512	      84.597909
	 D(7,6,9,10)      =        -0.622483	     -35.665640
	 D(8,6,9,10)      =        -2.734338	    -156.666050

	Current energy   :      -230.1460986552

	Energy change for the previous step:
		Projected    :        -0.0008024542
		Actual       :        -0.0007317890

	Performing Bofill update.
	Previous computed or guess Hessian on step 1.
	Steps to be used in Hessian update: 1
	Taking PRFO optimization step.
	Maximizing along 1 lowest eigenvalue of Hessian.

 RFO min eigenvalues
 -0.001819 -0.000000 -0.000000 -0.000000 -0.000000 -0.000000  0.000000  0.000000
  0.000000  0.000000  0.000000  0.000000  0.000000  0.000000  0.003036  0.027398
  0.051100  0.069835  0.073382  0.087149  0.093339  0.106629  0.159844  0.159996
  0.159998  0.159999  0.163903  0.192438  0.231315  0.286528  0.333777  0.338907
  0.342219  0.347541  0.347639  0.401654  0.648541

 RFO max eigenvalues
 -0.011866  0.001649
	|RFO target step|  :        0.4292362404
	RFO gradient       :       -0.0003951208
	RFO hessian        :        0.0017179412
	Projected Delta(E) :       -0.0000095759

	Back-transformation to cartesian coordinates...
	Could not converge backtransformation.
	Using first guess instead.

	--- Internal Coordinate Step in ANG or DEG, aJ/ANG or AJ/DEG ---
	 ---------------------------------------------------------------------------
	   Coordinate                Previous        Force       Change         New 
	   ----------                --------       ------       ------       ------
	    1 H(2,10)         =      1.276618    -0.010245    -0.000767     1.275851
	    2 R(1,2)          =      1.307759     0.048196     0.001400     1.309159
	    3 R(1,3)          =      1.096901    -0.007253     0.001118     1.098019
	    4 R(1,4)          =      1.101961    -0.006813     0.001755     1.103716
	    5 R(1,9)          =      1.640343    -0.060875     0.001465     1.641808
	    6 R(5,6)          =      1.089489    -0.003581     0.008009     1.097498
	    7 R(6,7)          =      1.095084    -0.003330     0.006693     1.101777
	    8 R(6,8)          =      1.090347    -0.003950     0.007177     1.097524
	    9 R(6,9)          =      1.425699    -0.010444    -0.000238     1.425461
	   10 R(9,10)         =      1.170141     0.114001    -0.000649     1.169492
	   11 B(1,9,6)        =    118.293528    -0.000387     0.031087   118.324614
	   12 B(1,9,10)       =     67.000563     0.000312    -0.011605    66.988958
	   13 B(2,1,3)        =    119.350007    -0.000196     0.131654   119.481660
	   14 B(2,1,4)        =    118.970172     0.000001    -0.025270   118.944902
	   15 B(2,1,9)        =     93.162914     0.000154    -0.092442    93.070472
	   16 B(3,1,4)        =    113.594530    -0.000129    -0.034813   113.559717
	   17 B(3,1,9)        =    102.557269     0.000109    -0.080719   102.476551
	   18 B(4,1,9)        =    103.172658     0.000327     0.050716   103.223375
	   19 B(5,6,7)        =    109.982790    -0.000020     0.140976   110.123767
	   20 B(5,6,8)        =    109.504629    -0.000029     0.108434   109.613063
	   21 B(5,6,9)        =    107.924206     0.000003    -0.064866   107.859340
	   22 B(6,9,10)       =    119.130964    -0.000264     0.091599   119.222563
	   23 B(7,6,8)        =    110.135411    -0.000028     0.169004   110.304416
	   24 B(7,6,9)        =    110.453942     0.000005    -0.204366   110.249576
	   25 B(8,6,9)        =    108.796425     0.000070    -0.156191   108.640234
	   26 D(1,9,6,5)      =    162.592949     0.000009    -9.673916   152.919033
	   27 D(1,9,6,7)      =     42.329400     0.000013    -9.685055    32.644345
	   28 D(1,9,6,8)      =    -78.671010     0.000010    -9.667703   -88.338713
	   29 D(2,1,9,6)      =   -109.852369    -0.000026    -2.474717  -112.327086
	   30 D(2,1,9,10)     =      1.993509    -0.000046    -2.380608    -0.387099
	   31 D(3,1,9,6)      =    129.134791     0.000005    -2.569141   126.565650
	   32 D(3,1,9,10)     =   -119.019330    -0.000014    -2.475033  -121.494363
	   33 D(4,1,9,6)      =     10.887102    -0.000000    -2.519101     8.368001
	   34 D(4,1,9,10)     =    122.732981    -0.000020    -2.424993   120.307988
	   35 D(5,6,9,10)     =     84.597909    -0.000013    -9.713481    74.884428
	   36 D(7,6,9,10)     =    -35.665640    -0.000008    -9.724620   -45.390261
	   37 D(8,6,9,10)     =   -156.666050    -0.000011    -9.707268  -166.373318
	 ---------------------------------------------------------------------------
	Successfully symmetrized geometry.

  ==> Convergence Check <==

  Measures of convergence in internal coordinates in au.
  Criteria marked as inactive (o), active & met (*), and active & unmet ( ).
  ---------------------------------------------------------------------------------------------
   Step     Total Energy     Delta E     MAX Force     RMS Force      MAX Disp      RMS Disp   
  ---------------------------------------------------------------------------------------------
    Convergence Criteria    1.00e-06 *    3.00e-04 *             o    1.20e-03 *             o
  ---------------------------------------------------------------------------------------------
      2    -230.14609866   -7.32e-04      1.38e-02      3.24e-03 o    1.70e-01      7.05e-02 o  ~
  ---------------------------------------------------------------------------------------------

	Writing optimization data to binary file.
	Structure for next step:
	Cartesian Geometry (in Angstrom)
	    C    -0.1826908931  -1.0141620073   0.2078783752
	    O    -1.2553721846  -0.7573319518  -0.4973105553
	    H    -0.2876128674  -1.4157048658   1.2244413258
	    H     0.7277258094  -1.3601911125  -0.3113471845
	    H     1.0876122150   2.2264459070  -0.2503065434
	    C     1.2804952565   1.1546997498  -0.1137095665
	    H     1.4858755306   0.6795282745  -1.0863061510
	    H     2.1321663574   1.0171933798   0.5647492682
	    O     0.1235461745   0.5750075523   0.4840909187
	    H    -0.8301610759   0.4001345436  -0.1697999777
			--------------------------
			 OPTKING Finished Execution 
			--------------------------

    Structure for next step:
    Molecular point group: c1
    Full point group: C1

    Geometry (in Angstrom), charge = 0, multiplicity = 1:

    C           -0.173334631926    -1.019476666444     0.193535497694
    O           -1.246015923394    -0.762646610905    -0.511653432808
    H           -0.278256606199    -1.421019524928     1.210098448291
    H            0.737082070525    -1.365505771673    -0.325690061985
    H            1.096968476186     2.221131247886    -0.264649420894
    C            1.289851517624     1.149385090658    -0.128052443998
    H            1.495231791791     0.674213615417    -1.100649028472
    H            2.141522618526     1.011878720708     0.550406390699
    O            0.132902435681     0.569692893169     0.469748041219
    H           -0.820804814724     0.394819884441    -0.184142855166

gradient() will perform analytic gradient computation.

*** tstart() called on localhost.localdomain
*** at Thu Jan 17 10:46:22 2019

   => Loading Basis Set <=

    Name: 6-311++G(D,P)
    Role: ORBITAL
    Keyword: BASIS
    atoms 1, 6         entry C          line   119 file /root/psi4conda/share/psi4/basis/6-311ppg_d_p_.gbs 
    atoms 2, 9         entry O          line   161 file /root/psi4conda/share/psi4/basis/6-311ppg_d_p_.gbs 
    atoms 3-5, 7-8, 10 entry H          line    42 file /root/psi4conda/share/psi4/basis/6-311ppg_d_p_.gbs 


         ---------------------------------------------------------
                                   SCF
            by Justin Turney, Rob Parrish, Andy Simmonett
                             and Daniel Smith
                              RKS Reference
                       32 Threads,    500 MiB Core
         ---------------------------------------------------------

  ==> Geometry <==

    Molecular point group: c1
    Full point group: C1

    Geometry (in Angstrom), charge = 0, multiplicity = 1:

       Center              X                  Y                   Z               Mass       
    ------------   -----------------  -----------------  -----------------  -----------------
         C           -0.173334631926    -1.019476666444     0.193535497694    12.000000000000
         O           -1.246015923394    -0.762646610905    -0.511653432808    15.994914619560
         H           -0.278256606199    -1.421019524928     1.210098448291     1.007825032070
         H            0.737082070525    -1.365505771673    -0.325690061985     1.007825032070
         H            1.096968476186     2.221131247886    -0.264649420894     1.007825032070
         C            1.289851517624     1.149385090658    -0.128052443998    12.000000000000
         H            1.495231791791     0.674213615417    -1.100649028472     1.007825032070
         H            2.141522618526     1.011878720708     0.550406390699     1.007825032070
         O            0.132902435681     0.569692893169     0.469748041219    15.994914619560
         H           -0.820804814724     0.394819884441    -0.184142855166     1.007825032070

  Running in c1 symmetry.

  Rotational constants: A =      0.70863  B =      0.16009  C =      0.15264 [cm^-1]
  Rotational constants: A =  21244.26762  B =   4799.48061  C =   4576.14653 [MHz]
  Nuclear repulsion =  134.484346662804370

  Charge       = 0
  Multiplicity = 1
  Electrons    = 34
  Nalpha       = 17
  Nbeta        = 17

  ==> Algorithm <==

  SCF Algorithm Type is DF.
  DIIS enabled.
  MOM disabled.
  Fractional occupation disabled.
  Guess Type is READ.
  Energy threshold   = 1.00e-08
  Density threshold  = 1.00e-08
  Integral threshold = 0.00e+00

  ==> Primary Basis <==

  Basis Set: 6-311++G(D,P)
    Blend: 6-311++G(D,P)
    Number of shells: 70
    Number of basis function: 130
    Number of Cartesian functions: 134
    Spherical Harmonics?: true
    Max angular momentum: 2

  ==> DFT Potential <==

   => Composite Functional: M06-2X <= 

    Hybrid M06-2X Meta-GGA XC Functional

    Y. Zhao and D. G. Truhlar,  Theor. Chem. Acc., 120, 215, 2008


    Deriv               =              1
    GGA                 =           TRUE
    Meta                =           TRUE

    Exchange Hybrid     =           TRUE
    MP2 Hybrid          =          FALSE

   => Exchange Functionals <=

    1.0000   XC_HYB_MGGA_X_M06_2X

   => Exact (HF) Exchange <=

    0.5400               HF 

   => Correlation Functionals <=

    1.0000   XC_MGGA_C_M06_2X

   => Molecular Quadrature <=

    Radial Scheme       =       TREUTLER
    Pruning Scheme      =           FLAT
    Nuclear Scheme      =       TREUTLER

    BS radius alpha     =              1
    Pruning alpha       =              1
    Radial Points       =             75
    Spherical Points    =            302
    Total Points        =         226500
    Total Blocks        =           1755
    Max Points          =            256
    Max Functions       =            130

   => Loading Basis Set <=

    Name: (6-311++G(D,P) AUX)
    Role: JKFIT
    Keyword: DF_BASIS_SCF
    atoms 1, 6         entry C          line   162 file /root/psi4conda/share/psi4/basis/aug-cc-pvtz-jkfit.gbs 
    atoms 2, 9         entry O          line   286 file /root/psi4conda/share/psi4/basis/aug-cc-pvtz-jkfit.gbs 
    atoms 3-5, 7-8, 10 entry H          line    70 file /root/psi4conda/share/psi4/basis/aug-cc-pvtz-jkfit.gbs 

  Reading orbitals from file 180, no projection.

  ==> Pre-Iterations <==

   -------------------------------------------------------
    Irrep   Nso     Nmo     Nalpha   Nbeta   Ndocc  Nsocc
   -------------------------------------------------------
     A        130     130       0       0       0       0
   -------------------------------------------------------
    Total     130     130      17      17      17       0
   -------------------------------------------------------

  ==> Integral Setup <==

  DFHelper Memory: AOs need 0.117 [GiB]; user supplied 0.366 [GiB]. Using in-core AOs.

  ==> MemDFJK: Density-Fitted J/K Matrices <==

    J tasked:                   Yes
    K tasked:                   Yes
    wK tasked:                   No
    OpenMP threads:              32
    Memory (MB):                375
    Algorithm:                 Core
    Schwarz Cutoff:           1E-12
    Mask sparsity (%):       1.0414
    Fitting Condition:        1E-12

   => Auxiliary Basis Set <=

  Basis Set: (6-311++G(D,P) AUX)
    Blend: AUG-CC-PVTZ-JKFIT
    Number of shells: 204
    Number of basis function: 692
    Number of Cartesian functions: 854
    Spherical Harmonics?: true
    Max angular momentum: 4

  Minimum eigenvalue in the overlap matrix is 5.3610234022E-04.
  Using Symmetric Orthogonalization.

  SCF Guess: Orbitals guess was supplied from a previous computation.

  ==> Iterations <==

                           Total Energy        Delta E     RMS |[F,P]|

   @DF-RKS iter   0:  -230.11922056987424   -2.30119e+02   4.50235e-03 
   @DF-RKS iter   1:  -230.14542221707683   -2.62016e-02   5.87421e-04 
   @DF-RKS iter   2:  -230.14577283136225   -3.50614e-04   3.52037e-04 DIIS
   @DF-RKS iter   3:  -230.14583811729730   -6.52859e-05   1.32140e-04 DIIS
   @DF-RKS iter   4:  -230.14584692103429   -8.80374e-06   7.33154e-05 DIIS
   @DF-RKS iter   5:  -230.14584959850066   -2.67747e-06   1.14097e-05 DIIS
   @DF-RKS iter   6:  -230.14584969822718   -9.97265e-08   3.12410e-06 DIIS
   @DF-RKS iter   7:  -230.14584970617653   -7.94935e-09   1.45099e-06 DIIS
   @DF-RKS iter   8:  -230.14584970809784   -1.92131e-09   5.04169e-07 DIIS
   @DF-RKS iter   9:  -230.14584970830919   -2.11344e-10   1.98971e-07 DIIS
   @DF-RKS iter  10:  -230.14584970833977   -3.05818e-11   4.05889e-08 DIIS
   @DF-RKS iter  11:  -230.14584970834190   -2.13163e-12   9.23848e-09 DIIS

  ==> Post-Iterations <==

    Orbital Energies [Eh]
    ---------------------

    Doubly Occupied:                                                      

       1A    -19.676966     2A    -19.582261     3A    -10.655194  
       4A    -10.611342     5A     -1.220348     6A     -1.104466  
       7A     -0.814499     8A     -0.742563     9A     -0.630560  
      10A     -0.586059    11A     -0.555805    12A     -0.515033  
      13A     -0.494577    14A     -0.448441    15A     -0.433128  
      16A     -0.350491    17A     -0.326392  

    Virtual:                                                              

      18A     -0.007481    19A      0.013063    20A      0.020796  
      21A      0.022899    22A      0.041461    23A      0.048883  
      24A      0.059019    25A      0.071298    26A      0.083029  
      27A      0.105574    28A      0.115588    29A      0.116803  
      30A      0.123003    31A      0.137149    32A      0.147879  
      33A      0.184190    34A      0.195013    35A      0.210111  
      36A      0.211922    37A      0.223243    38A      0.238264  
      39A      0.257065    40A      0.271505    41A      0.276877  
      42A      0.305468    43A      0.313996    44A      0.329129  
      45A      0.335873    46A      0.342136    47A      0.397230  
      48A      0.425333    49A      0.469193    50A      0.477766  
      51A      0.527445    52A      0.540178    53A      0.558974  
      54A      0.609467    55A      0.654323    56A      0.659162  
      57A      0.682641    58A      0.692827    59A      0.709861  
      60A      0.718684    61A      0.911375    62A      0.981911  
      63A      1.009289    64A      1.038822    65A      1.070565  
      66A      1.132201    67A      1.192341    68A      1.208958  
      69A      1.237564    70A      1.255448    71A      1.304259  
      72A      1.357350    73A      1.464647    74A      1.473534  
      75A      1.536159    76A      1.561598    77A      1.565753  
      78A      1.591934    79A      1.608383    80A      1.652662  
      81A      1.666754    82A      1.706860    83A      1.726487  
      84A      1.752194    85A      1.782204    86A      1.844539  
      87A      1.909794    88A      1.984908    89A      2.019871  
      90A      2.064849    91A      2.144053    92A      2.189829  
      93A      2.333657    94A      2.420190    95A      2.450125  
      96A      2.493019    97A      2.514053    98A      2.526657  
      99A      2.547193   100A      2.591162   101A      2.601573  
     102A      2.717844   103A      2.776565   104A      2.876127  
     105A      2.910022   106A      2.933614   107A      2.987875  
     108A      3.119002   109A      3.176219   110A      3.207033  
     111A      3.298125   112A      3.478805   113A      3.621917  
     114A      3.709589   115A      3.759092   116A      3.820618  
     117A      3.833367   118A      3.945064   119A      4.062772  
     120A      4.146153   121A      5.207077   122A      5.230349  
     123A      5.273936   124A      5.326923   125A      5.618918  
     126A      5.756357   127A     23.897040   128A     23.947447  
     129A     49.977785   130A     50.106793  

    Final Occupation by Irrep:
              A 
    DOCC [    17 ]

  Energy converged.

  @DF-RKS Final Energy:  -230.14584970834190

   => Energetics <=

    Nuclear Repulsion Energy =            134.4843466628043700
    One-Electron Energy =                -579.7691600205336044
    Two-Electron Energy =                 229.6873240875931970
    DFT Exchange-Correlation Energy =     -14.5483604382058225
    Empirical Dispersion Energy =           0.0000000000000000
    VV10 Nonlocal Energy =                  0.0000000000000000
    Total Energy =                       -230.1458497083418990



Properties will be evaluated at   0.000000,   0.000000,   0.000000 [a0]

Properties computed using the SCF density matrix

  Nuclear Dipole Moment: [e a0]
     X:     4.0930      Y:     1.4198      Z:    -0.1077

  Electronic Dipole Moment: [e a0]
     X:    -2.6871      Y:    -0.9612      Z:     0.3424

  Dipole Moment: [e a0]
     X:     1.4059      Y:     0.4586      Z:     0.2347     Total:     1.4973

  Dipole Moment: [D]
     X:     3.5735      Y:     1.1656      Z:     0.5967     Total:     3.8058


*** tstop() called on localhost.localdomain at Thu Jan 17 10:46:27 2019
Module time:
	user time   =     111.40 seconds =       1.86 minutes
	system time =       2.25 seconds =       0.04 minutes
	total time  =          5 seconds =       0.08 minutes
Total time:
	user time   =     476.92 seconds =       7.95 minutes
	system time =      16.97 seconds =       0.28 minutes
	total time  =         20 seconds =       0.33 minutes

*** tstart() called on localhost.localdomain
*** at Thu Jan 17 10:46:27 2019


         ------------------------------------------------------------
                                   SCF GRAD                          
                          Rob Parrish, Justin Turney,                
                       Andy Simmonett, and Alex Sokolov              
         ------------------------------------------------------------

  ==> Geometry <==

    Molecular point group: c1
    Full point group: C1

    Geometry (in Angstrom), charge = 0, multiplicity = 1:

       Center              X                  Y                   Z               Mass       
    ------------   -----------------  -----------------  -----------------  -----------------
         C           -0.173334631926    -1.019476666444     0.193535497694    12.000000000000
         O           -1.246015923394    -0.762646610905    -0.511653432808    15.994914619560
         H           -0.278256606199    -1.421019524928     1.210098448291     1.007825032070
         H            0.737082070525    -1.365505771673    -0.325690061985     1.007825032070
         H            1.096968476186     2.221131247886    -0.264649420894     1.007825032070
         C            1.289851517624     1.149385090658    -0.128052443998    12.000000000000
         H            1.495231791791     0.674213615417    -1.100649028472     1.007825032070
         H            2.141522618526     1.011878720708     0.550406390699     1.007825032070
         O            0.132902435681     0.569692893169     0.469748041219    15.994914619560
         H           -0.820804814724     0.394819884441    -0.184142855166     1.007825032070

  Nuclear repulsion =  134.484346662804370

  ==> Basis Set <==

  Basis Set: 6-311++G(D,P)
    Blend: 6-311++G(D,P)
    Number of shells: 70
    Number of basis function: 130
    Number of Cartesian functions: 134
    Spherical Harmonics?: true
    Max angular momentum: 2

  ==> DFJKGrad: Density-Fitted SCF Gradients <==

    Gradient:                    1
    J tasked:                  Yes
    K tasked:                  Yes
    wK tasked:                  No
    OpenMP threads:             32
    Integrals threads:          32
    Memory (MB):               375
    Schwarz Cutoff:          0E+00
    Fitting Condition:       1E-12

   => Auxiliary Basis Set <=

  Basis Set: (6-311++G(D,P) AUX)
    Blend: AUG-CC-PVTZ-JKFIT
    Number of shells: 204
    Number of basis function: 692
    Number of Cartesian functions: 854
    Spherical Harmonics?: true
    Max angular momentum: 4

  ==> DFT Potential <==

   => Composite Functional: M06-2X <= 

    Hybrid M06-2X Meta-GGA XC Functional

    Y. Zhao and D. G. Truhlar,  Theor. Chem. Acc., 120, 215, 2008


    Deriv               =              1
    GGA                 =           TRUE
    Meta                =           TRUE

    Exchange Hybrid     =           TRUE
    MP2 Hybrid          =          FALSE

   => Exchange Functionals <=

    1.0000   XC_HYB_MGGA_X_M06_2X

   => Exact (HF) Exchange <=

    0.5400               HF 

   => Correlation Functionals <=

    1.0000   XC_MGGA_C_M06_2X

   => Molecular Quadrature <=

    Radial Scheme       =       TREUTLER
    Pruning Scheme      =           FLAT
    Nuclear Scheme      =       TREUTLER

    BS radius alpha     =              1
    Pruning alpha       =              1
    Radial Points       =             75
    Spherical Points    =            302
    Total Points        =         226500
    Total Blocks        =           1755
    Max Points          =            256
    Max Functions       =            130


  -Total Gradient:
     Atom            X                  Y                   Z
    ------   -----------------  -----------------  -----------------
       1       -0.010834657082    -0.008607012150    -0.005275262694
       2        0.003251339005    -0.000681982960     0.000921862781
       3        0.000789447375     0.000931580730     0.002283565375
       4        0.002251021368     0.001260863699    -0.001084881893
       5       -0.001664412005     0.005447698788    -0.000510521352
       6       -0.001956576002    -0.000231334573     0.000152520730
       7        0.000364681444    -0.003192321940    -0.003790730469
       8        0.003222667896    -0.000895200237     0.004233770813
       9       -0.006888053083     0.005868465308    -0.005983213678
      10        0.011605472781     0.000010228801     0.009185962818


*** tstop() called on localhost.localdomain at Thu Jan 17 10:46:30 2019
Module time:
	user time   =      61.98 seconds =       1.03 minutes
	system time =       3.94 seconds =       0.07 minutes
	total time  =          3 seconds =       0.05 minutes
Total time:
	user time   =     538.94 seconds =       8.98 minutes
	system time =      20.91 seconds =       0.35 minutes
	total time  =         23 seconds =       0.38 minutes

			-----------------------------------------
			 OPTKING 2.0: for geometry optimizations 
			  - R.A. King,  Bethel University        
			-----------------------------------------

	Previous internal coordinate definitions found.
	---Fragment 1 Geometry and Gradient---
	 C          -0.3275549837       -1.9265316984        0.3657290876
	 O          -2.3546288524       -1.4411932308       -0.9668848630
	 H          -0.5258287804       -2.6853377316        2.2867546611
	 H           1.3928832508       -2.5804319413       -0.6154650214
	 H           2.0729699964        4.1973297637       -0.5001149267
	 C           2.4374661204        2.1720230426       -0.2419840498
	 H           2.8255785917        1.2740790882       -2.0799252322
	 H           4.0468912564        1.9121736618        1.0401173402
	 O           0.2511492058        1.0765635479        0.8876951494
	 H          -1.5510963084        0.7461014534       -0.3479795656
	            -0.0108346571       -0.0086070121       -0.0052752627
	             0.0032513390       -0.0006819830        0.0009218628
	             0.0007894474        0.0009315807        0.0022835654
	             0.0022510214        0.0012608637       -0.0010848819
	            -0.0016644120        0.0054476988       -0.0005105214
	            -0.0019565760       -0.0002313346        0.0001525207
	             0.0003646814       -0.0031923219       -0.0037907305
	             0.0032226679       -0.0008952002        0.0042337708
	            -0.0068880531        0.0058684653       -0.0059832137
	             0.0116054728        0.0000102288        0.0091859628

	---Fragment 1 Intrafragment Coordinates---
	 - Coordinate -           - BOHR/RAD -       - ANG/DEG -
	 H(2,10)          =         2.411009	       1.275851
	 R(1,2)           =         2.473953	       1.309159
	 R(1,3)           =         2.074955	       1.098019
	 R(1,4)           =         2.085722	       1.103716
	 R(1,9)           =         3.102568	       1.641808
	 R(5,6)           =         2.073971	       1.097498
	 R(6,7)           =         2.082057	       1.101777
	 R(6,8)           =         2.074019	       1.097524
	 R(6,9)           =         2.693731	       1.425461
	 R(9,10)          =         2.210019	       1.169492
	 B(1,9,6)         =         2.065154	     118.324614
	 B(1,9,10)        =         1.169178	      66.988958
	 B(2,1,3)         =         2.085348	     119.481660
	 B(2,1,4)         =         2.075980	     118.944902
	 B(2,1,9)         =         1.624386	      93.070472
	 B(3,1,4)         =         1.981991	     113.559717
	 B(3,1,9)         =         1.788553	     102.476551
	 B(4,1,9)         =         1.801588	     103.223375
	 B(5,6,7)         =         1.922022	     110.123767
	 B(5,6,8)         =         1.913109	     109.613063
	 B(5,6,9)         =         1.882501	     107.859340
	 B(6,9,10)        =         2.080826	     119.222563
	 B(7,6,8)         =         1.925175	     110.304416
	 B(7,6,9)         =         1.924218	     110.249576
	 B(8,6,9)         =         1.896130	     108.640234
	 D(1,9,6,5)       =         2.668941	     152.919033
	 D(1,9,6,7)       =         0.569751	      32.644345
	 D(1,9,6,8)       =        -1.541801	     -88.338713
	 D(2,1,9,6)       =        -1.960477	    -112.327086
	 D(2,1,9,10)      =        -0.006756	      -0.387099
	 D(3,1,9,6)       =         2.208987	     126.565650
	 D(3,1,9,10)      =        -2.120477	    -121.494363
	 D(4,1,9,6)       =         0.146049	       8.368001
	 D(4,1,9,10)      =         2.099771	     120.307988
	 D(5,6,9,10)      =         1.306980	      74.884428
	 D(7,6,9,10)      =        -0.792209	     -45.390261
	 D(8,6,9,10)      =        -2.903762	    -166.373318

	Current energy   :      -230.1458497083

	Energy change for the previous step:
		Projected    :        -0.0000095759
		Actual       :         0.0002489469

	Performing Bofill update.
	Previous computed or guess Hessian on step 1.
	Steps to be used in Hessian update: 2 1
	Taking PRFO optimization step.
	Maximizing along 1 lowest eigenvalue of Hessian.

 RFO min eigenvalues
 -0.002703 -0.000000 -0.000000 -0.000000 -0.000000 -0.000000 -0.000000  0.000000
  0.000000  0.000000  0.000000  0.000000  0.000000  0.000000  0.005590  0.026103
  0.050754  0.069856  0.073374  0.087235  0.093360  0.106594  0.159772  0.159994
  0.159997  0.160122  0.164303  0.189938  0.231079  0.286786  0.333788  0.338911
  0.342252  0.347552  0.347856  0.401678  0.648253

 RFO max eigenvalues
 -0.007919  0.001586
	Change in coordinate exceeds step limit of    0.50000.
	Scaling displacements by    0.84644
	|RFO target step|  :        0.5000000000
	RFO gradient       :       -0.0018905652
	RFO hessian        :        0.0029592019
	Projected Delta(E) :       -0.0004603059

	Back-transformation to cartesian coordinates...
	Could not converge backtransformation.
	Using first guess instead.

	--- Internal Coordinate Step in ANG or DEG, aJ/ANG or AJ/DEG ---
	 ---------------------------------------------------------------------------
	   Coordinate                Previous        Force       Change         New 
	   ----------                --------       ------       ------       ------
	    1 H(2,10)         =      1.275851    -0.010884    -0.016859     1.258992
	    2 R(1,2)          =      1.309159     0.029432     0.000449     1.309609
	    3 R(1,3)          =      1.098019    -0.013896    -0.000683     1.097336
	    4 R(1,4)          =      1.103716    -0.016050    -0.001016     1.102700
	    5 R(1,9)          =      1.641808    -0.056927    -0.006306     1.635502
	    6 R(5,6)          =      1.097498    -0.046782     0.002057     1.099556
	    7 R(6,7)          =      1.101777    -0.039550     0.000941     1.102719
	    8 R(6,8)          =      1.097524    -0.043007     0.002209     1.099733
	    9 R(6,9)          =      1.425461    -0.003331    -0.000859     1.424602
	   10 R(9,10)         =      1.169492     0.114084     0.007719     1.177211
	   11 B(1,9,6)        =    118.324614    -0.000206    -0.811100   117.513514
	   12 B(1,9,10)       =     66.988958     0.000287    -0.617291    66.371666
	   13 B(2,1,3)        =    119.481660    -0.000161    -0.500207   118.981454
	   14 B(2,1,4)        =    118.944902    -0.000059     0.352241   119.297143
	   15 B(2,1,9)        =     93.070472     0.000167     0.143195    93.213667
	   16 B(3,1,4)        =    113.559717    -0.000131    -0.049920   113.509797
	   17 B(3,1,9)        =    102.476551     0.000217    -0.247087   102.229463
	   18 B(4,1,9)        =    103.223375     0.000254     0.453191   103.676565
	   19 B(5,6,7)        =    110.123767    -0.000088     0.186842   110.310609
	   20 B(5,6,8)        =    109.613063    -0.000067     0.048560   109.661623
	   21 B(5,6,9)        =    107.859340     0.000031     0.010418   107.869758
	   22 B(6,9,10)       =    119.222563    -0.000176    -1.288535   117.934028
	   23 B(7,6,8)        =    110.304416    -0.000089     0.074974   110.379389
	   24 B(7,6,9)        =    110.249576     0.000094    -0.298099   109.951477
	   25 B(8,6,9)        =    108.640234     0.000124    -0.026943   108.613291
	   26 D(1,9,6,5)      =    152.919033     0.000025    10.662767   163.581800
[...]
     129A     49.972421   130A     50.116327  

    Final Occupation by Irrep:
              A 
    DOCC [    17 ]

  Energy converged.

  @DF-RKS Final Energy:  -230.14593004850349

   => Energetics <=

    Nuclear Repulsion Energy =            134.6807796249874514
    One-Electron Energy =                -580.1290104537739580
    Two-Electron Energy =                 229.8527940504735341
    DFT Exchange-Correlation Energy =     -14.5504932701905201
    Empirical Dispersion Energy =           0.0000000000000000
    VV10 Nonlocal Energy =                  0.0000000000000000
    Total Energy =                       -230.1459300485034873



Properties will be evaluated at   0.000000,   0.000000,   0.000000 [a0]

Properties computed using the SCF density matrix

  Nuclear Dipole Moment: [e a0]
     X:     4.0616      Y:     1.4479      Z:     0.0831

  Electronic Dipole Moment: [e a0]
     X:    -2.6178      Y:    -0.8569      Z:     0.2628

  Dipole Moment: [e a0]
     X:     1.4438      Y:     0.5910      Z:     0.3458     Total:     1.5980

  Dipole Moment: [D]
     X:     3.6698      Y:     1.5021      Z:     0.8790     Total:     4.0616


*** tstop() called on localhost.localdomain at Thu Jan 17 10:48:05 2019
Module time:
	user time   =      98.81 seconds =       1.65 minutes
	system time =       2.02 seconds =       0.03 minutes
	total time  =          4 seconds =       0.07 minutes
Total time:
	user time   =    2854.39 seconds =      47.57 minutes
	system time =      98.35 seconds =       1.64 minutes
	total time  =        118 seconds =       1.97 minutes

*** tstart() called on localhost.localdomain
*** at Thu Jan 17 10:48:05 2019


         ------------------------------------------------------------
                                   SCF GRAD                          
                          Rob Parrish, Justin Turney,                
                       Andy Simmonett, and Alex Sokolov              
         ------------------------------------------------------------

  ==> Geometry <==

    Molecular point group: c1
    Full point group: C1

    Geometry (in Angstrom), charge = 0, multiplicity = 1:

       Center              X                  Y                   Z               Mass       
    ------------   -----------------  -----------------  -----------------  -----------------
         C           -0.185114839068    -1.002440288444     0.212164275656    12.000000000000
         O           -1.195906128921    -0.785329963826    -0.581486258520    15.994914619560
         H           -0.372430959452    -1.387591664993     1.222064929873     1.007825032070
         H            0.765146042402    -1.361098193307    -0.215437356320     1.007825032070
         H            1.190086881801     2.220329143677    -0.097656414572     1.007825032070
         C            1.281909007356     1.135439298381    -0.095807387788    12.000000000000
         H            1.403809863138     0.768530080675    -1.119129706079     1.007825032070
         H            2.137905808347     0.844794785632     0.511433014177     1.007825032070
         O            0.099703943024     0.588170584466     0.488577911428    15.994914619560
         H           -0.786333714816     0.460501847375    -0.212193106817     1.007825032070

  Nuclear repulsion =  134.680779624987451

  ==> Basis Set <==

  Basis Set: 6-311++G(D,P)
    Blend: 6-311++G(D,P)
    Number of shells: 70
    Number of basis function: 130
    Number of Cartesian functions: 134
    Spherical Harmonics?: true
    Max angular momentum: 2

  ==> DFJKGrad: Density-Fitted SCF Gradients <==

    Gradient:                    1
    J tasked:                  Yes
    K tasked:                  Yes
    wK tasked:                  No
    OpenMP threads:             32
    Integrals threads:          32
    Memory (MB):               375
    Schwarz Cutoff:          0E+00
    Fitting Condition:       1E-12

   => Auxiliary Basis Set <=

  Basis Set: (6-311++G(D,P) AUX)
    Blend: AUG-CC-PVTZ-JKFIT
    Number of shells: 204
    Number of basis function: 692
    Number of Cartesian functions: 854
    Spherical Harmonics?: true
    Max angular momentum: 4

  ==> DFT Potential <==

   => Composite Functional: M06-2X <= 

    Hybrid M06-2X Meta-GGA XC Functional

    Y. Zhao and D. G. Truhlar,  Theor. Chem. Acc., 120, 215, 2008


    Deriv               =              1
    GGA                 =           TRUE
    Meta                =           TRUE

    Exchange Hybrid     =           TRUE
    MP2 Hybrid          =          FALSE

   => Exchange Functionals <=

    1.0000   XC_HYB_MGGA_X_M06_2X

   => Exact (HF) Exchange <=

    0.5400               HF 

   => Correlation Functionals <=

    1.0000   XC_MGGA_C_M06_2X

   => Molecular Quadrature <=

    Radial Scheme       =       TREUTLER
    Pruning Scheme      =           FLAT
    Nuclear Scheme      =       TREUTLER

    BS radius alpha     =              1
    Pruning alpha       =              1
    Radial Points       =             75
    Spherical Points    =            302
    Total Points        =         226500
    Total Blocks        =           1731
    Max Points          =            256
    Max Functions       =            130


  -Total Gradient:
     Atom            X                  Y                   Z
    ------   -----------------  -----------------  -----------------
       1       -0.000242716751    -0.000235131527    -0.000195477453
       2        0.000031330617    -0.000005056391     0.000047033245
       3        0.000051493843     0.000080329883     0.000116474093
       4        0.000097436074     0.000098328271     0.000074883577
       5        0.000023438760     0.000035647450     0.000020454504
       6       -0.000097554625    -0.000026678201     0.000051750352
       7       -0.000015325777     0.000037518588     0.000004767892
       8        0.000013346464     0.000018799125    -0.000010512010
       9        0.000088157482     0.000232533493     0.000010118003
      10        0.000048506886    -0.000208256057     0.000147385061


*** tstop() called on localhost.localdomain at Thu Jan 17 10:48:08 2019
Module time:
	user time   =      61.59 seconds =       1.03 minutes
	system time =       3.35 seconds =       0.06 minutes
	total time  =          3 seconds =       0.05 minutes
Total time:
	user time   =    2916.02 seconds =      48.60 minutes
	system time =     101.70 seconds =       1.70 minutes
	total time  =        121 seconds =       2.02 minutes

			-----------------------------------------
			 OPTKING 2.0: for geometry optimizations 
			  - R.A. King,  Bethel University        
			-----------------------------------------

	Previous internal coordinate definitions found.
	---Fragment 1 Geometry and Gradient---
	 C          -0.3498163490       -1.8943376097        0.4009323762
	 O          -2.2599350643       -1.4840585556       -1.0988497786
	 H          -0.7037925168       -2.6221682311        2.3093680341
	 H           1.4459164718       -2.5721028253       -0.4071176022
	 H           2.2489382809        4.1958140064       -0.1845438787
	 C           2.4224569512        2.1456693145       -0.1810497244
	 H           2.6528161840        1.4523113774       -2.1148486517
	 H           4.0400564757        1.5964307833        0.9664683321
	 O           0.1884131467        1.1114813241        0.9232784472
	 H          -1.4859553701        0.8702223752       -0.4009868592
	            -0.0002427168       -0.0002351315       -0.0001954775
	             0.0000313306       -0.0000050564        0.0000470332
	             0.0000514938        0.0000803299        0.0001164741
	             0.0000974361        0.0000983283        0.0000748836
	             0.0000234388        0.0000356475        0.0000204545
	            -0.0000975546       -0.0000266782        0.0000517504
	            -0.0000153258        0.0000375186        0.0000047679
	             0.0000133465        0.0000187991       -0.0000105120
	             0.0000881575        0.0002325335        0.0000101180
	             0.0000485069       -0.0002082561        0.0001473851

	---Fragment 1 Intrafragment Coordinates---
	 - Coordinate -           - BOHR/RAD -       - ANG/DEG -
	 H(2,10)          =         2.574625	       1.362433
	 R(1,2)           =         2.462972	       1.303348
	 R(1,3)           =         2.072960	       1.096963
	 R(1,4)           =         2.082539	       1.102032
	 R(1,9)           =         3.097981	       1.639381
	 R(5,6)           =         2.057478	       1.088770
	 R(6,7)           =         2.067218	       1.093924
	 R(6,8)           =         2.057933	       1.089011
	 R(6,9)           =         2.698154	       1.427802
	 R(9,10)          =         2.148347	       1.136856
	 B(1,9,6)         =         2.033907	     116.534295
	 B(1,9,10)        =         1.215043	      69.616845
	 B(2,1,3)         =         2.079059	     119.121332
	 B(2,1,4)         =         2.079069	     119.121853
	 B(2,1,9)         =         1.646655	      94.346369
	 B(3,1,4)         =         1.971635	     112.966352
	 B(3,1,9)         =         1.787593	     102.421518
	 B(4,1,9)         =         1.804295	     103.378504
	 B(5,6,7)         =         1.919862	     110.000002
	 B(5,6,8)         =         1.910465	     109.461576
	 B(5,6,9)         =         1.888930	     108.227725
	 B(6,9,10)        =         2.022020	     115.853237
	 B(7,6,8)         =         1.922515	     110.152007
	 B(7,6,9)         =         1.924721	     110.278374
	 B(8,6,9)         =         1.896848	     108.681408
	 D(1,9,6,5)       =         2.842786	     162.879668
	 D(1,9,6,7)       =         0.741959	      42.511136
	 D(1,9,6,8)       =        -1.367084	     -78.328127
	 D(2,1,9,6)       =        -1.908060	    -109.323793
	 D(2,1,9,10)      =         0.003740	       0.214309
	 D(3,1,9,6)       =         2.261566	     129.578203
	 D(3,1,9,10)      =        -2.109818	    -120.883695
	 D(4,1,9,6)       =         0.209310	      11.992581
	 D(4,1,9,10)      =         2.121111	     121.530683
	 D(5,6,9,10)      =         1.463807	      83.869937
	 D(7,6,9,10)      =        -0.637021	     -36.498595
	 D(8,6,9,10)      =        -2.746064	    -157.337858

	Current energy   :      -230.1459300485

	Energy change for the previous step:
		Projected    :        -0.0000030051
		Actual       :        -0.0000008142

	Performing Bofill update.
	Previous computed or guess Hessian on step 1.
	Steps to be used in Hessian update: 16 15
	Taking PRFO optimization step.
	Maximizing along 1 lowest eigenvalue of Hessian.

 RFO min eigenvalues
 -0.000002 -0.000000 -0.000000 -0.000000 -0.000000 -0.000000  0.000000  0.000000
  0.000000  0.000000  0.000000  0.000000  0.000000  0.000000  0.002698  0.007821
  0.049254  0.070011  0.073346  0.088511  0.109104  0.115411  0.159715  0.159861
  0.160289  0.161207  0.172998  0.184712  0.272598  0.311042  0.334248  0.338639
  0.342320  0.347541  0.348292  0.402706  0.644058

 RFO max eigenvalues
 -0.040540  0.000000
	|RFO target step|  :        0.0190150587
	RFO gradient       :       -0.0001120059
	RFO hessian        :        0.0058881931
	Projected Delta(E) :       -0.0000010649

	Back-transformation to cartesian coordinates...
	Could not converge backtransformation.
	Using first guess instead.

	--- Internal Coordinate Step in ANG or DEG, aJ/ANG or AJ/DEG ---
	 ---------------------------------------------------------------------------
	   Coordinate                Previous        Force       Change         New 
	   ----------                --------       ------       ------       ------
	    1 H(2,10)         =      1.362433     0.000165     0.000680     1.363113
	    2 R(1,2)          =      1.303348     0.000096    -0.000095     1.303253
	    3 R(1,3)          =      1.096963    -0.000305    -0.000060     1.096903
	    4 R(1,4)          =      1.102032    -0.000171    -0.000052     1.101980
	    5 R(1,9)          =      1.639381    -0.000816    -0.000068     1.639313
	    6 R(5,6)          =      1.088770    -0.000151    -0.000012     1.088758
	    7 R(6,7)          =      1.093924    -0.000007     0.000016     1.093940
	    8 R(6,8)          =      1.089011    -0.000058     0.000007     1.089018
	    9 R(6,9)          =      1.427802     0.000120    -0.000035     1.427766
	   10 R(9,10)         =      1.136856     0.000813     0.000117     1.136973
	   11 B(1,9,6)        =    116.534295    -0.000005     0.037054   116.571349
	   12 B(1,9,10)       =     69.616845     0.000010     0.060403    69.677249
	   13 B(2,1,3)        =    119.121332    -0.000005    -0.043990   119.077342
	   14 B(2,1,4)        =    119.121853    -0.000005    -0.023425   119.098428
	   15 B(2,1,9)        =     94.346369    -0.000003    -0.009447    94.336921
	   16 B(3,1,4)        =    112.966352    -0.000006    -0.016660   112.949692
	   17 B(3,1,9)        =    102.421518     0.000014     0.064521   102.486039
	   18 B(4,1,9)        =    103.378504     0.000016     0.091804   103.470307
	   19 B(5,6,7)        =    110.000002     0.000002     0.001581   110.001583
	   20 B(5,6,8)        =    109.461576     0.000003     0.016276   109.477851
	   21 B(5,6,9)        =    108.227725    -0.000005    -0.029071   108.198655
	   22 B(6,9,10)       =    115.853237    -0.000007    -0.052640   115.800597
	   23 B(7,6,8)        =    110.152007     0.000001     0.018424   110.170430
	   24 B(7,6,9)        =    110.278374    -0.000001    -0.004615   110.273759
	   25 B(8,6,9)        =    108.681408    -0.000001    -0.003305   108.678103
	   26 D(1,9,6,5)      =    162.879668     0.000000    -0.406836   162.472831
	   27 D(1,9,6,7)      =     42.511136     0.000001    -0.387961    42.123175
	   28 D(1,9,6,8)      =    -78.328127     0.000000    -0.405705   -78.733832
	   29 D(2,1,9,6)      =   -109.323793    -0.000000     0.074346  -109.249447
	   30 D(2,1,9,10)     =      0.214309    -0.000001     0.030470     0.244778
	   31 D(3,1,9,6)      =    129.578203     0.000001     0.109000   129.687203
	   32 D(3,1,9,10)     =   -120.883695    -0.000000     0.065124  -120.818571
	   33 D(4,1,9,6)      =     11.992581    -0.000001     0.068059    12.060640
	   34 D(4,1,9,10)     =    121.530683    -0.000001     0.024183   121.554865
	   35 D(5,6,9,10)     =     83.869937    -0.000001    -0.471299    83.398638
	   36 D(7,6,9,10)     =    -36.498595    -0.000001    -0.452423   -36.951018
	   37 D(8,6,9,10)     =   -157.337858    -0.000001    -0.470167  -157.808025
	 ---------------------------------------------------------------------------
	Successfully symmetrized geometry.

  ==> Convergence Check <==

  Measures of convergence in internal coordinates in au.
  Criteria marked as inactive (o), active & met (*), and active & unmet ( ).
  ---------------------------------------------------------------------------------------------
   Step     Total Energy     Delta E     MAX Force     RMS Force      MAX Disp      RMS Disp   
  ---------------------------------------------------------------------------------------------
    Convergence Criteria    1.00e-06 *    3.00e-04 *             o    1.20e-03 *             o
  ---------------------------------------------------------------------------------------------
     17    -230.14593005   -8.14e-07 *    2.08e-04 *    6.97e-05 o    8.23e-03      3.13e-03 o  ~
  ---------------------------------------------------------------------------------------------


  **** Optimization is complete! (in 17 steps) ****

  ==> Optimization Summary <==

  Measures of convergence in internal coordinates in au.
  --------------------------------------------------------------------------------------------------------------- ~
   Step         Total Energy             Delta E       MAX Force       RMS Force        MAX Disp        RMS Disp  ~
  --------------------------------------------------------------------------------------------------------------- ~
      1    -230.145366866194   -230.145366866194      0.01070170      0.00257679      0.09632529      0.03941879  ~
      2    -230.146098655210     -0.000731789016      0.01383717      0.00324266      0.16972664      0.07045377  ~
      3    -230.145849708342      0.000248946868      0.01384726      0.00337508      0.21567356      0.08169888  ~
      4    -230.146315231541     -0.000465523200      0.01754567      0.00424606      0.18763838      0.07776662  ~
      5    -230.146663641229     -0.000348409688      0.02096572      0.00483341      0.23912389      0.08326760  ~
      6    -230.145126060112      0.001537581117      0.00771000      0.00295682      0.18133041      0.06956393  ~
      7    -230.143915346621      0.001210713491      0.01214288      0.00396305      0.18822475      0.08212787  ~
      8    -230.144830563490     -0.000915216869      0.00770728      0.00273872      0.14301981      0.06097195  ~
      9    -230.145004414684     -0.000173851194      0.00605330      0.00169678      0.18375472      0.04688385  ~
     10    -230.146989704631     -0.001985289947      0.01626524      0.00407158      0.22778000      0.08123296  ~
     11    -230.146308839496      0.000680865135      0.02343643      0.00629726      0.23801324      0.05674264  ~
     12    -230.145759967307      0.000548872189      0.00234293      0.00099504      0.02476261      0.01122636  ~
     13    -230.145862196603     -0.000102229296      0.00103007      0.00030754      0.11727005      0.04635556  ~
     14    -230.145860441987      0.000001754616      0.00249168      0.00087991      0.04356429      0.01774944  ~
     15    -230.145923040945     -0.000062598958      0.00089070      0.00026663      0.01052163      0.00412648  ~
     16    -230.145929234304     -0.000006193360      0.00059753      0.00014303      0.00862422      0.00380766  ~
     17    -230.145930048503     -0.000000814199      0.00020756      0.00006971      0.00822571      0.00312588  ~
  --------------------------------------------------------------------------------------------------------------- ~

	Writing optimization data to binary file.
	Final energy is   -230.1459300485035
	Final (previous) structure:
	Cartesian Geometry (in Angstrom)
	    C    -0.1851148391  -1.0024402884   0.2121642757
	    O    -1.1959061289  -0.7853299638  -0.5814862585
	    H    -0.3724309595  -1.3875916650   1.2220649299
	    H     0.7651460424  -1.3610981933  -0.2154373563
	    H     1.1900868818   2.2203291437  -0.0976564146
	    C     1.2819090074   1.1354392984  -0.0958073878
	    H     1.4038098631   0.7685300807  -1.1191297061
	    H     2.1379058083   0.8447947856   0.5114330142
	    O     0.0997039430   0.5881705845   0.4885779114
	    H    -0.7863337148   0.4605018474  -0.2121931068
	Saving final (previous) structure.
	Removing binary optimization data file.
			--------------------------
			 OPTKING Finished Execution 
			--------------------------

    Final optimized geometry and variables:
    Molecular point group: c1
    Full point group: C1

    Geometry (in Angstrom), charge = 0, multiplicity = 1:

    C           -0.185114839068    -1.002440288444     0.212164275656
    O           -1.195906128921    -0.785329963826    -0.581486258520
    H           -0.372430959452    -1.387591664993     1.222064929873
    H            0.765146042402    -1.361098193307    -0.215437356320
    H            1.190086881801     2.220329143677    -0.097656414572
    C            1.281909007356     1.135439298381    -0.095807387788
    H            1.403809863138     0.768530080675    -1.119129706079
    H            2.137905808347     0.844794785632     0.511433014177
    O            0.099703943024     0.588170584466     0.488577911428
    H           -0.786333714816     0.460501847375    -0.212193106817

	Removing binary optimization data file.
	Cleaning optimization helper files.

    Psi4 stopped on: Thursday, 17 January 2019 10:48AM
    Psi4 wall time for execution: 0:02:01.04

*** Psi4 exiting successfully. Buy a developer a beer!
