
    -----------------------------------------------------------------------
          Psi4: An Open-Source Ab Initio Electronic Structure Package
                               Psi4 1.2.1 release

                         Git: Rev {HEAD} 406f4de 


    R. M. Parrish, L. A. Burns, D. G. A. Smith, A. C. Simmonett,
    A. E. DePrince III, E. G. Hohenstein, U. Bozkaya, A. Yu. Sokolov,
    R. Di Remigio, R. M. Richard, J. F. Gonthier, A. M. James,
    H. R. McAlexander, A. Kumar, M. Saitow, X. Wang, B. P. Pritchard,
    P. Verma, H. F. Schaefer III, K. Patkowski, R. A. King, E. F. Valeev,
    F. A. Evangelista, J. M. Turney, T. D. Crawford, and C. D. Sherrill,
    J. Chem. Theory Comput. 13(7) pp 3185--3197 (2017).
    (doi: 10.1021/acs.jctc.7b00174)


                         Additional Contributions by
    P. Kraus, H. Kruse, M. H. Lechner, M. C. Schieber, and R. A. Shaw

    -----------------------------------------------------------------------


    Psi4 started on: Monday, 13 May 2019 10:52AM

    Process ID: 20192
    Host:       localhost.localdomain
    PSIDATADIR: /root/psi4conda/share/psi4
    Memory:     500.0 MiB
    Threads:    1
    
  ==> Input File <==

--------------------------------------------------------------------------
molecule{
0 1
C       -0.2199932644     -1.1872715186      0.1094348180                 
O       -1.0271672008     -0.9425249395     -0.7495534682                 
H        0.1564614487     -0.5116969893      2.0797023623                 
H       -1.5577358025     -0.9287351352      1.7592148759                 
C       -0.5205500375     -1.2068567218      1.5775470659                 
H       -0.3270794502     -2.2074751784      1.9740911647                 
H        0.8283432408     -1.4193569154     -0.1650229424               
}

set{
   basis 6-311++G(d,p)
   freeze_core True
   cubeprop_tasks ['ESP']
}


set_num_threads(32)
e, wfn = energy('m06-2x', return_wfn=True)
cubeprop(wfn)
--------------------------------------------------------------------------
  Threads set to 32 by Python driver.

*** tstart() called on localhost.localdomain
*** at Mon May 13 10:53:00 2019

   => Loading Basis Set <=

    Name: 6-311++G(D,P)
    Role: ORBITAL
    Keyword: BASIS
    atoms 1, 5     entry C          line   119 file /root/psi4conda/share/psi4/basis/6-311ppg_d_p_.gbs 
    atoms 2        entry O          line   161 file /root/psi4conda/share/psi4/basis/6-311ppg_d_p_.gbs 
    atoms 3-4, 6-7 entry H          line    42 file /root/psi4conda/share/psi4/basis/6-311ppg_d_p_.gbs 


         ---------------------------------------------------------
                                   SCF
            by Justin Turney, Rob Parrish, Andy Simmonett
                             and Daniel Smith
                              RKS Reference
                       32 Threads,    500 MiB Core
         ---------------------------------------------------------

  ==> Geometry <==

    Molecular point group: c1
    Full point group: C1

    Geometry (in Angstrom), charge = 0, multiplicity = 1:

       Center              X                  Y                   Z               Mass       
    ------------   -----------------  -----------------  -----------------  -----------------
         C            0.375629698522    -0.076295686988    -0.207351898457    12.000000000000
         O           -0.431544237878     0.168450892112    -1.066340184657    15.994914619560
         H            0.752084411622     0.599278842312     1.762915645843     1.007825032070
         H           -0.962112839578     0.182240696412     1.442428159443     1.007825032070
         C            0.075072925422    -0.095880890188     1.260760349443    12.000000000000
         H            0.268543512722    -1.096499346788     1.657304448243     1.007825032070
         H            1.423966203722    -0.308381083788    -0.481809658857     1.007825032070

  Running in c1 symmetry.

  Rotational constants: A =      1.90651  B =      0.34101  C =      0.30577 [cm^-1]
  Rotational constants: A =  57155.84197  B =  10223.20485  C =   9166.61872 [MHz]
  Nuclear repulsion =   69.893479881726194

  Charge       = 0
  Multiplicity = 1
  Electrons    = 24
  Nalpha       = 12
  Nbeta        = 12

  ==> Algorithm <==

  SCF Algorithm Type is DF.
  DIIS enabled.
  MOM disabled.
  Fractional occupation disabled.
  Guess Type is SAD.
  Energy threshold   = 1.00e-06
  Density threshold  = 1.00e-06
  Integral threshold = 0.00e+00

  ==> Primary Basis <==

  Basis Set: 6-311++G(D,P)
    Blend: 6-311++G(D,P)
    Number of shells: 50
    Number of basis function: 94
    Number of Cartesian functions: 97
    Spherical Harmonics?: true
    Max angular momentum: 2

  ==> DFT Potential <==

   => Composite Functional: M06-2X <= 

    Hybrid M06-2X Meta-GGA XC Functional

    Y. Zhao and D. G. Truhlar,  Theor. Chem. Acc., 120, 215, 2008


    Deriv               =              1
    GGA                 =           TRUE
    Meta                =           TRUE

    Exchange Hybrid     =           TRUE
    MP2 Hybrid          =          FALSE

   => Exchange Functionals <=

    1.0000   XC_HYB_MGGA_X_M06_2X

   => Exact (HF) Exchange <=

    0.5400               HF 

   => Correlation Functionals <=

    1.0000   XC_MGGA_C_M06_2X

   => Molecular Quadrature <=

    Radial Scheme       =       TREUTLER
    Pruning Scheme      =           FLAT
    Nuclear Scheme      =       TREUTLER

    BS radius alpha     =              1
    Pruning alpha       =              1
    Radial Points       =             75
    Spherical Points    =            302
    Total Points        =         158550
    Total Blocks        =           1252
    Max Points          =            256
    Max Functions       =             94

   => Loading Basis Set <=

    Name: (6-311++G(D,P) AUX)
    Role: JKFIT
    Keyword: DF_BASIS_SCF
    atoms 1, 5     entry C          line   162 file /root/psi4conda/share/psi4/basis/aug-cc-pvtz-jkfit.gbs 
    atoms 2        entry O          line   286 file /root/psi4conda/share/psi4/basis/aug-cc-pvtz-jkfit.gbs 
    atoms 3-4, 6-7 entry H          line    70 file /root/psi4conda/share/psi4/basis/aug-cc-pvtz-jkfit.gbs 

  ==> Pre-Iterations <==

   -------------------------------------------------------
    Irrep   Nso     Nmo     Nalpha   Nbeta   Ndocc  Nsocc
   -------------------------------------------------------
     A         94      94       0       0       0       0
   -------------------------------------------------------
    Total      94      94      12      12      12       0
   -------------------------------------------------------

  ==> Integral Setup <==

  DFHelper Memory: AOs need 0.046 [GiB]; user supplied 0.366 [GiB]. Using in-core AOs.

  ==> MemDFJK: Density-Fitted J/K Matrices <==

    J tasked:                   Yes
    K tasked:                   Yes
    wK tasked:                   No
    OpenMP threads:              32
    Memory (MB):                375
    Algorithm:                 Core
    Schwarz Cutoff:           1E-12
    Mask sparsity (%):       0.1584
    Fitting Condition:        1E-12

   => Auxiliary Basis Set <=

  Basis Set: (6-311++G(D,P) AUX)
    Blend: AUG-CC-PVTZ-JKFIT
    Number of shells: 146
    Number of basis function: 496
    Number of Cartesian functions: 613
    Spherical Harmonics?: true
    Max angular momentum: 4

  Minimum eigenvalue in the overlap matrix is 1.4941639959E-04.
  Using Symmetric Orthogonalization.

  SCF Guess: Superposition of Atomic Densities via on-the-fly atomic UHF.

  ==> Iterations <==

                           Total Energy        Delta E     RMS |[F,P]|

   @DF-RKS iter   0:  -154.08647207068327   -1.54086e+02   9.18138e-02 
   @DF-RKS iter   1:  -153.69344066890096    3.93031e-01   1.63097e-02 
   @DF-RKS iter   2:  -153.67052991793571    2.29108e-02   3.55787e-02 DIIS
   @DF-RKS iter   3:  -153.79925465810592   -1.28725e-01   4.46665e-03 DIIS
   @DF-RKS iter   4:  -153.80380465852539   -4.55000e-03   2.78542e-03 DIIS
   @DF-RKS iter   5:  -153.80448410708118   -6.79449e-04   1.74900e-04 DIIS
   @DF-RKS iter   6:  -153.80450871644965   -2.46094e-05   6.04643e-05 DIIS
   @DF-RKS iter   7:  -153.80451136541603   -2.64897e-06   2.82669e-05 DIIS
   @DF-RKS iter   8:  -153.80451185106401   -4.85648e-07   8.56764e-06 DIIS
   @DF-RKS iter   9:  -153.80451191246809   -6.14041e-08   2.38690e-06 DIIS
   @DF-RKS iter  10:  -153.80451192609456   -1.36265e-08   9.60509e-07 DIIS

  ==> Post-Iterations <==

    Orbital Energies [Eh]
    ---------------------

    Doubly Occupied:                                                      

       1A    -19.630919     2A    -10.637500     3A    -10.550531  
       4A     -1.182277     5A     -0.856808     6A     -0.671630  
       7A     -0.565662     8A     -0.523267     9A     -0.520455  
      10A     -0.470622    11A     -0.439286    12A     -0.336342  

    Virtual:                                                              

      13A     -0.002549    14A      0.011173    15A      0.017986  
      16A      0.026715    17A      0.040124    18A      0.064564  
      19A      0.079722    20A      0.091065    21A      0.095382  
      22A      0.103817    23A      0.123538    24A      0.134746  
      25A      0.149875    26A      0.200573    27A      0.203228  
      28A      0.215767    29A      0.249308    30A      0.276141  
      31A      0.279480    32A      0.317824    33A      0.336001  
      34A      0.348525    35A      0.434125    36A      0.462094  
      37A      0.492888    38A      0.553174    39A      0.563715  
      40A      0.565971    41A      0.675770    42A      0.681169  
      43A      0.701551    44A      0.710116    45A      0.744023  
      46A      0.890681    47A      0.906449    48A      1.012143  
      49A      1.139998    50A      1.142298    51A      1.234970  
      52A      1.243276    53A      1.271876    54A      1.475949  
      55A      1.496985    56A      1.505828    57A      1.559018  
      58A      1.580488    59A      1.590047    60A      1.599636  
      61A      1.730335    62A      1.771009    63A      1.781301  
      64A      1.929170    65A      1.939547    66A      2.082838  
      67A      2.162430    68A      2.240254    69A      2.317676  
      70A      2.471342    71A      2.503190    72A      2.524060  
      73A      2.541224    74A      2.587838    75A      2.623352  
      76A      2.734886    77A      2.792129    78A      2.891579  
      79A      2.970173    80A      2.971264    81A      3.161964  
      82A      3.404101    83A      3.541357    84A      3.543042  
      85A      3.824865    86A      3.866206    87A      3.923743  
      88A      4.183160    89A      5.121398    90A      5.246332  
      91A      5.788647    92A     23.938344    93A     24.027404  
      94A     50.053633  

    Final Occupation by Irrep:
              A 
    DOCC [    12 ]

  Energy converged.

  @DF-RKS Final Energy:  -153.80451192609456

   => Energetics <=

    Nuclear Repulsion Energy =             69.8934798817261935
    One-Electron Energy =                -346.3495904084475114
    Two-Electron Energy =                 132.7004428087217889
    DFT Exchange-Correlation Energy =     -10.0488442080950335
    Empirical Dispersion Energy =           0.0000000000000000
    VV10 Nonlocal Energy =                  0.0000000000000000
    Total Energy =                       -153.8045119260945626



Properties will be evaluated at   0.000000,   0.000000,   0.000000 [a0]

Properties computed using the SCF density matrix

  Nuclear Dipole Moment: [e a0]
     X:     1.3877      Y:    -0.5836      Z:     4.1018

  Electronic Dipole Moment: [e a0]
     X:    -0.7492      Y:     0.3695      Z:    -3.1469

  Dipole Moment: [e a0]
     X:     0.6385      Y:    -0.2140      Z:     0.9548     Total:     1.1684

  Dipole Moment: [D]
     X:     1.6229      Y:    -0.5440      Z:     2.4269     Total:     2.9698


*** tstop() called on localhost.localdomain at Mon May 13 10:53:02 2019
Module time:
	user time   =      63.69 seconds =       1.06 minutes
	system time =       3.77 seconds =       0.06 minutes
	total time  =          2 seconds =       0.03 minutes
Total time:
	user time   =      63.69 seconds =       1.06 minutes
	system time =       3.77 seconds =       0.06 minutes
	total time  =          2 seconds =       0.03 minutes
  ==> One Electron Grid Properties (v2.0) <==

  ==> CubicScalarGrid <==

    Filepath     = .
    Total Points =           252416
    XYZ Blocking =               10
    X Points     =               64
    Y Points     =               58
    Z Points     =               68
    X Spacing    =        2.000E-01
    Y Spacing    =        2.000E-01
    Z Spacing    =        2.000E-01
    X Minimum    =       -5.864E+00
    Y Minimum    =       -6.170E+00
    Z Minimum    =       -6.042E+00
    X Maximum    =        6.736E+00
    Y Maximum    =        5.230E+00
    Z Maximum    =        7.358E+00

  Basis Set: 6-311++G(D,P)
    Blend: 6-311++G(D,P)
    Number of shells: 50
    Number of basis function: 94
    Number of Cartesian functions: 97
    Spherical Harmonics?: true
    Max angular momentum: 2


    Psi4 stopped on: Monday, 13 May 2019 10:53AM
    Psi4 wall time for execution: 0:00:05.09

*** Psi4 exiting successfully. Buy a developer a beer!
