
                                 *****************
                                 * O   R   C   A *
                                 *****************

           --- An Ab Initio, DFT and Semiempirical electronic structure package ---

                  #######################################################
                  #                        -***-                        #
                  #          Department of theory and spectroscopy      #
                  #               Directorship: Frank Neese             #
                  #        Max Planck Institute fuer Kohlenforschung    #
                  #                Kaiser Wilhelm Platz 1               #
                  #                 D-45470 Muelheim/Ruhr               #
                  #                      Germany                        #
                  #                                                     #
                  #                  All rights reserved                #
                  #                        -***-                        #
                  #######################################################


                         Program Version 4.1.1  - RELEASE  -


 With contributions from (in alphabetic order):
   Daniel Aravena         : Magnetic Properties
   Michael Atanasov       : Ab Initio Ligand Field Theory
   Alexander A. Auer      : GIAO ZORA
   Ute Becker             : Parallelization
   Giovanni Bistoni       : ED, Open-shell LED
   Martin Brehm           : Molecular dynamics
   Dmytro Bykov           : SCF Hessian
   Vijay G. Chilkuri      : MRCI spin determinant printing
   Dipayan Datta          : RHF DLPNO-CCSD density
   Achintya Kumar Dutta   : EOM-CC, STEOM-CC
   Dmitry Ganyushin       : Spin-Orbit,Spin-Spin,Magnetic field MRCI
   Miquel Garcia          : C-PCM Hessian
   Yang Guo               : DLPNO-NEVPT2, CIM, IAO-localization
   Andreas Hansen         : Spin unrestricted coupled pair/coupled cluster methods
   Benjamin Helmich-Paris : CASSCF linear response (MC-RPA)
   Lee Huntington         : MR-EOM, pCC
   Robert Izsak           : Overlap fitted RIJCOSX, COSX-SCS-MP3, EOM
   Christian Kollmar      : KDIIS, OOCD, Brueckner-CCSD(T), CCSD density
   Simone Kossmann        : Meta GGA functionals, TD-DFT gradient, OOMP2, MP2 Hessian
   Martin Krupicka        : AUTO-CI
   Lucas Lang             : DCDCAS
   Dagmar Lenk            : GEPOL surface, SMD
   Dimitrios Liakos       : Extrapolation schemes; parallel MDCI
   Dimitrios Manganas     : ROCIS; embedding schemes
   Dimitrios Pantazis     : SARC Basis sets
   Taras Petrenko         : DFT Hessian,TD-DFT gradient, ASA, ECA, R-Raman, ABS, FL, XAS/XES, NRVS
   Peter Pinski           : DLPNO-MP2, DLPNO-MP2 Gradient
   Christoph Reimann      : Effective Core Potentials
   Marius Retegan         : Local ZFS, SOC
   Christoph Riplinger    : Optimizer, TS searches, QM/MM, DLPNO-CCSD(T), (RO)-DLPNO pert. Triples
   Tobias Risthaus        : Range-separated hybrids, TD-DFT gradient, RPA, STAB
   Michael Roemelt        : Restricted open shell CIS
   Masaaki Saitow         : Open-shell DLPNO
   Barbara Sandhoefer     : DKH picture change effects
   Avijit Sen             : IP-ROCIS
   Kantharuban Sivalingam : CASSCF convergence, NEVPT2, FIC-MRCI
   Bernardo de Souza      : ESD, SOC TD-DFT
   Georgi Stoychev        : AutoAux, RI-MP2 NMR
   Willem Van den Heuvel  : Paramagnetic NMR
   Boris Wezisla          : Elementary symmetry handling
   Frank Wennmohs         : Technical directorship


 We gratefully acknowledge several colleagues who have allowed us to
 interface, adapt or use parts of their codes:
   Stefan Grimme, W. Hujo, H. Kruse,             : VdW corrections, initial TS optimization,
                  C. Bannwarth                     DFT functionals, gCP, sTDA/sTD-DF
   Ed Valeev                                     : LibInt (2-el integral package), F12 methods
   Garnet Chan, S. Sharma, J. Yang, R. Olivares  : DMRG
   Ulf Ekstrom                                   : XCFun DFT Library
   Mihaly Kallay                                 : mrcc  (arbitrary order and MRCC methods)
   Andreas Klamt, Michael Diedenhofen            : otool_cosmo (COSMO solvation model)
   Jiri Pittner, Ondrej Demel                    : Mk-CCSD
   Frank Weinhold                                : gennbo (NPA and NBO analysis)
   Christopher J. Cramer and Donald G. Truhlar   : smd solvation model
   Lars Goerigk                                  : TD-DFT with DH, B97 family of functionals
   V. Asgeirsson, H. Jonsson                     : NEB implementation
   FAccTs GmbH                                   : IRC, NEB, NEB-TS, Multilevel


 Your calculation uses the libint2 library for the computation of 2-el integrals
 For citations please refer to: http://libint.valeyev.net

 This ORCA versions uses:
   CBLAS   interface :  Fast vector & matrix operations
   LAPACKE interface :  Fast linear algebra routines
   SCALAPACK package :  Parallel linear algebra routines


----- Orbital basis set information -----
Your calculation utilizes the basis: SV(P) 

================================================================================
                                        WARNINGS
                       Please study these warnings very carefully!
================================================================================


WARNING: Geometry Optimization
  ===> : Switching off AutoStart
         For restart on a previous wavefunction, please use MOREAD

INFO   : the flag for use of LIBINT has been found!

================================================================================
                                       INPUT FILE
================================================================================
NAME = input.dat
|  1> !B3LYP SV(P) OptTS NumFreq
|  2> 
|  3> *xyz 0 1
|  4> C      0.162167     0.405264    -0.066274
|  5> O     -1.090890     0.357340    -0.141363
|  6> O      1.117341     1.076332    -0.129785
|  7> H      0.424780    -0.999507     0.219049
|  8> H     -0.613397    -0.839429     0.118374
|  9> *
| 10> 
| 11>                          ****END OF INPUT****
================================================================================

                       *****************************
                       * Geometry Optimization Run *
                       *****************************

Geometry optimization settings:
Update method            Update   .... Bofill
Choice of coordinates    CoordSys .... Z-matrix Internals
Initial Hessian          InHess   .... Almoef's Model

Convergence Tolerances:
Energy Change            TolE     ....  5.0000e-06 Eh
Max. Gradient            TolMAXG  ....  3.0000e-04 Eh/bohr
RMS Gradient             TolRMSG  ....  1.0000e-04 Eh/bohr
Max. Displacement        TolMAXD  ....  4.0000e-03 bohr
RMS Displacement         TolRMSD  ....  2.0000e-03 bohr

------------------------------------------------------------------------------
                        ORCA OPTIMIZATION COORDINATE SETUP
------------------------------------------------------------------------------

The optimization will be done in new redundant internal coordinates
Making redundant internal coordinates   ...  (new redundants) done
Following TS mode number                ...     0
Evaluating the initial hessian          ...  (Almloef) done
Evaluating the coordinates              ...  done
Calculating the B-matrix                .... done
Calculating the G-matrix                .... done
Diagonalizing the G-matrix              .... done
The first mode is                       ....    0
The number of degrees of freedom        ....    9

    -----------------------------------------------------------------
                    Redundant Internal Coordinates


    -----------------------------------------------------------------
         Definition                    Initial Value    Approx d2E/dq
    -----------------------------------------------------------------
      1. B(O   1,C   0)                  1.2562         0.914774   
      2. B(O   2,C   0)                  1.1691         1.259958   
      3. B(H   4,O   1)                  1.3144         0.141417   
      4. B(H   4,H   3)                  1.0553         0.078326   
      5. A(O   1,C   0,O   2)          146.4737         0.524174   
      6. A(C   0,O   1,H   4)           70.1576         0.317630   
      7. A(O   1,H   4,H   3)          120.9546         0.180404   
      8. D(H   4,O   1,C   0,O   2)    179.9958         0.058982   
      9. D(H   3,H   4,O   1,C   0)      0.0285         0.014289   
    -----------------------------------------------------------------

Number of atoms                         .... 5
Number of degrees of freedom            .... 9

         *************************************************************
         *                GEOMETRY OPTIMIZATION CYCLE   1            *
         *************************************************************
---------------------------------
CARTESIAN COORDINATES (ANGSTROEM)
---------------------------------
  C      0.162167    0.405264   -0.066274
  O     -1.090890    0.357340   -0.141363
  O      1.117341    1.076332   -0.129785
  H      0.424780   -0.999507    0.219049
  H     -0.613397   -0.839429    0.118374

----------------------------
CARTESIAN COORDINATES (A.U.)
----------------------------
  NO LB      ZA    FRAG     MASS         X           Y           Z
   0 C     6.0000    0    12.011    0.306451    0.765838   -0.125240
   1 O     8.0000    0    15.999   -2.061483    0.675275   -0.267137
   2 O     8.0000    0    15.999    2.111468    2.033973   -0.245258
   3 H     1.0000    0     1.008    0.802718   -1.888794    0.413943
   4 H     1.0000    0     1.008   -1.159152   -1.586291    0.223694

--------------------------------
INTERNAL COORDINATES (ANGSTROEM)
--------------------------------
 C      0   0   0     0.000000000000     0.00000000     0.00000000
 O      1   0   0     1.256219293335     0.00000000     0.00000000
 O      1   2   0     1.169069406845   146.47369613     0.00000000
 H      1   2   3     1.457311347839    98.89818545   179.98622376
 H      4   1   2     1.055259164868    69.98953450     0.00000000

---------------------------
INTERNAL COORDINATES (A.U.)
---------------------------
 C      0   0   0     0.000000000000     0.00000000     0.00000000
 O      1   0   0     2.373910428550     0.00000000     0.00000000
 O      1   2   0     2.209221010483   146.47369613     0.00000000
 H      1   2   3     2.753919339271    98.89818545   179.98622376
 H      4   1   2     1.994150821911    69.98953450     0.00000000

---------------------
BASIS SET INFORMATION
---------------------
There are 3 groups of distinct atoms

 Group   1 Type C   : 7s4p1d contracted to 3s2p1d pattern {511/31/1}
 Group   2 Type O   : 7s4p1d contracted to 3s2p1d pattern {511/31/1}
 Group   3 Type H   : 4s contracted to 2s pattern {31}

Atom   0C    basis set group =>   1
Atom   1O    basis set group =>   2
Atom   2O    basis set group =>   2
Atom   3H    basis set group =>   3
Atom   4H    basis set group =>   3
------------------------------------------------------------------------------
                           ORCA GTO INTEGRAL CALCULATION
------------------------------------------------------------------------------

                         BASIS SET STATISTICS AND STARTUP INFO

 # of primitive gaussian shells          ...   44
 # of primitive gaussian functions       ...   80
 # of contracted shells                  ...   22
 # of contracted basis functions         ...   46
 Highest angular momentum                ...    2
 Maximum contraction depth               ...    5
 Integral package used                   ... LIBINT
 Integral threshhold            Thresh   ...  2.500e-11
 Primitive cut-off              TCut     ...  2.500e-12


------------------------------ INTEGRAL EVALUATION ----------------------------


 * One electron integrals 
 Pre-screening matrix                    ... done
 Shell pair data                         ... done (   0.000 sec)

-------------------------------------------------------------------------------
                                 ORCA SCF
-------------------------------------------------------------------------------

------------
SCF SETTINGS
------------
Hamiltonian:
 Density Functional     Method          .... DFT(GTOs)
 Exchange Functional    Exchange        .... B88
   X-Alpha parameter    XAlpha          ....  0.666667
   Becke's b parameter  XBeta           ....  0.004200
 Correlation Functional Correlation     .... LYP
 LDA part of GGA corr.  LDAOpt          .... VWN-5
 Gradients option       PostSCFGGA      .... off
 Hybrid DFT is turned on
   Fraction HF Exchange ScalHFX         ....  0.200000
   Scaling of DF-GGA-X  ScalDFX         ....  0.720000
   Scaling of DF-GGA-C  ScalDFC         ....  0.810000
   Scaling of DF-LDA-C  ScalLDAC        ....  1.000000
   Perturbative correction              ....  0.000000
   Density functional embedding theory  .... OFF
   NL short-range parameter             ....  4.800000


General Settings:
 Integral files         IntName         .... input
 Hartree-Fock type      HFTyp           .... RHF
 Total Charge           Charge          ....    0
 Multiplicity           Mult            ....    1
 Number of Electrons    NEL             ....   24
 Basis Dimension        Dim             ....   46
 Nuclear Repulsion      ENuc            ....     70.1707695041 Eh

Convergence Acceleration:
 DIIS                   CNVDIIS         .... on
   Start iteration      DIISMaxIt       ....    12
   Startup error        DIISStart       ....  0.200000
   # of expansion vecs  DIISMaxEq       ....     5
   Bias factor          DIISBfac        ....   1.050
   Max. coefficient     DIISMaxC        ....  10.000
 Newton-Raphson         CNVNR           .... off
 SOSCF                  CNVSOSCF        .... on
   Start iteration      SOSCFMaxIt      ....   150
   Startup grad/error   SOSCFStart      ....  0.003300
 Level Shifting         CNVShift        .... on
   Level shift para.    LevelShift      ....    0.2500
   Turn off err/grad.   ShiftErr        ....    0.0010
 Zerner damping         CNVZerner       .... off
 Static damping         CNVDamp         .... on
   Fraction old density DampFac         ....    0.7000
   Max. Damping (<1)    DampMax         ....    0.9800
   Min. Damping (>=0)   DampMin         ....    0.0000
   Turn off err/grad.   DampErr         ....    0.1000
 Fernandez-Rico         CNVRico         .... off

SCF Procedure:
 Maximum # iterations   MaxIter         ....   125
 SCF integral mode      SCFMode         .... Direct
   Integral package                     .... LIBINT
 Reset frequency        DirectResetFreq ....    20
 Integral Threshold     Thresh          ....  2.500e-11 Eh
 Primitive CutOff       TCut            ....  2.500e-12 Eh

Convergence Tolerance:
 Convergence Check Mode ConvCheckMode   .... Total+1el-Energy
 Convergence forced     ConvForced      .... 0
 Energy Change          TolE            ....  1.000e-08 Eh
 1-El. energy change                    ....  1.000e-05 Eh
 Orbital Gradient       TolG            ....  1.000e-05
 Orbital Rotation angle TolX            ....  1.000e-05
 DIIS Error             TolErr          ....  5.000e-07


Diagonalization of the overlap matrix:
Smallest eigenvalue                        ... 9.880e-03
Time for diagonalization                   ...    0.001 sec
Threshold for overlap eigenvalues          ... 1.000e-08
Number of eigenvalues below threshold      ... 0
Time for construction of square roots      ...    0.000 sec
Total time needed                          ...    0.001 sec

-------------------
DFT GRID GENERATION
-------------------

General Integration Accuracy     IntAcc      ...  4.340
Radial Grid Type                 RadialGrid  ... Gauss-Chebyshev
Angular Grid (max. acc.)         AngularGrid ... Lebedev-110
Angular grid pruning method      GridPruning ... 3 (G Style)
Weight generation scheme         WeightScheme... Becke
Basis function cutoff            BFCut       ...    1.0000e-11
Integration weight cutoff        WCut        ...    1.0000e-14
Grids for H and He will be reduced by one unit

# of grid points (after initial pruning)     ...   6676 (   0.0 sec)
# of grid points (after weights+screening)   ...   6533 (   0.0 sec)
nearest neighbour list constructed           ...    0.0 sec
Grid point re-assignment to atoms done       ...    0.0 sec
Grid point division into batches done        ...    0.0 sec
Reduced shell lists constructed in    0.0 sec

Total number of grid points                  ...     6533
Total number of batches                      ...      104
Average number of points per batch           ...       62
Average number of grid points per atom       ...     1307
Average number of shells per batch           ...    18.73 (85.15%)
Average number of basis functions per batch  ...    39.91 (86.77%)
Average number of large shells per batch     ...    16.83 (89.83%)
Average number of large basis fcns per batch ...    35.40 (88.69%)
Maximum spatial batch extension              ...  17.94, 19.49, 22.48 au
Average spatial batch extension              ...   4.27,  4.42,  5.11 au

Time for grid setup =    0.043 sec

------------------------------
INITIAL GUESS: MODEL POTENTIAL
------------------------------
Loading Hartree-Fock densities                     ... done
Calculating cut-offs                               ... done
Setting up the integral package                    ... done
Initializing the effective Hamiltonian             ... done
Starting the Coulomb interaction                   ... done (   0.0 sec)
Reading the grid                                   ... done
Mapping shells                                     ... done
Starting the XC term evaluation                    ... done (   0.0 sec)
  promolecular density results
     # of electrons  =     23.997409709
     EX              =    -22.107244932
     EC              =     -0.839811735
     EX+EC           =    -22.947056667
Transforming the Hamiltonian                       ... done (   0.0 sec)
Diagonalizing the Hamiltonian                      ... done (   0.0 sec)
Back transforming the eigenvectors                 ... done (   0.0 sec)
Now organizing SCF variables                       ... done
                      ------------------
                      INITIAL GUESS DONE (   0.2 sec)
                      ------------------
--------------
SCF ITERATIONS
--------------
ITER       Energy         Delta-E        Max-DP      RMS-DP      [F,P]     Damp
               ***  Starting incremental Fock matrix formation  ***
  0   -189.2529609535   0.000000000000 0.09204784  0.00729864  0.2455893 0.7000
  1   -189.3320315857  -0.079070632175 0.04725997  0.00385705  0.0864006 0.7000
                               ***Turning on DIIS***
  2   -189.3513908143  -0.019359228595 0.04679730  0.00383821  0.0154257 0.0000
  3   -189.3969498689  -0.045559054668 0.02599068  0.00233459  0.0469830 0.0000
  4   -189.4025736757  -0.005623806737 0.01427505  0.00094383  0.0113177 0.0000
  5   -189.4029821429  -0.000408467182 0.00367147  0.00029741  0.0051042 0.0000
                      *** Initiating the SOSCF procedure ***
                           *** Shutting down DIIS ***
                      *** Re-Reading the Fockian *** 
                      *** Removing any level shift *** 
ITER      Energy       Delta-E        Grad      Rot      Max-DP    RMS-DP
  6   -189.40302292  -0.0000407796  0.000505  0.000505  0.001736  0.000108
               *** Restarting incremental Fock matrix formation ***
  7   -189.40303682  -0.0000139006  0.000501  0.001010  0.001198  0.000088
  8   -189.40303476   0.0000020586  0.000754  0.000596  0.000773  0.000052
  9   -189.40303808  -0.0000033168  0.000090  0.000233  0.000282  0.000018
 10   -189.40303792   0.0000001595  0.000200  0.000157  0.000206  0.000013
 11   -189.40303812  -0.0000002005  0.000008  0.000007  0.000024  0.000002
 12   -189.40303812  -0.0000000003  0.000006  0.000005  0.000013  0.000001
                  ***Gradient check signals convergence***
              ***Rediagonalizing the Fockian in SOSCF/NRSCF***

               *****************************************************
               *                     SUCCESS                       *
               *           SCF CONVERGED AFTER  13 CYCLES          *
               *****************************************************

Setting up the final grid:

General Integration Accuracy     IntAcc      ...  4.670
Radial Grid Type                 RadialGrid  ... Gauss-Chebyshev
Angular Grid (max. acc.)         AngularGrid ... Lebedev-302
Angular grid pruning method      GridPruning ... 3 (G Style)
Weight generation scheme         WeightScheme... Becke
Basis function cutoff            BFCut       ...    1.0000e-11
Integration weight cutoff        WCut        ...    1.0000e-14
Grids for H and He will be reduced by one unit

# of grid points (after initial pruning)     ...  25424 (   0.0 sec)
# of grid points (after weights+screening)   ...  24777 (   0.0 sec)
nearest neighbour list constructed           ...    0.0 sec
Grid point re-assignment to atoms done       ...    0.0 sec
Grid point division into batches done        ...    0.1 sec
Reduced shell lists constructed in    0.1 sec

Total number of grid points                  ...    24777
Total number of batches                      ...      390
Average number of points per batch           ...       63
Average number of grid points per atom       ...     4955
Average number of shells per batch           ...    17.12 (77.80%)
Average number of basis functions per batch  ...    36.43 (79.19%)
Average number of large shells per batch     ...    15.05 (87.91%)
Average number of large basis fcns per batch ...    31.45 (86.33%)
Maximum spatial batch extension              ...  17.32, 16.29, 19.16 au
Average spatial batch extension              ...   2.93,  2.99,  3.39 au

Final grid set up in    0.2 sec
Final integration                            ... done (   0.1 sec)
Change in XC energy                          ...    -0.000275838
Integrated number of electrons               ...    24.000019004
Previous integrated no of electrons          ...    23.998587426

----------------
TOTAL SCF ENERGY
----------------

Total Energy       :         -189.40331396 Eh           -5153.92619 eV

Components:
Nuclear Repulsion  :           70.17076950 Eh            1909.44371 eV
Electronic Energy  :         -259.57408346 Eh           -7063.36991 eV
One Electron Energy:         -397.27349713 Eh          -10810.36144 eV
Two Electron Energy:          137.69941366 Eh            3746.99154 eV

Virial components:
Potential Energy   :         -377.53179476 Eh          -10273.16241 eV
Kinetic Energy     :          188.12848080 Eh            5119.23622 eV
Virial Ratio       :            2.00677640


DFT components:
N(Alpha)           :       12.000009501888 electrons
N(Beta)            :       12.000009501888 electrons
N(Total)           :       24.000019003776 electrons
E(X)               :      -17.703175187813 Eh       
E(C)               :       -0.990694723363 Eh       
E(XC)              :      -18.693869911175 Eh       
DFET-embed. en.    :        0.000000000000 Eh       

---------------
SCF CONVERGENCE
---------------

  Last Energy change         ...   -3.2350e-10  Tolerance :   1.0000e-08
  Last MAX-Density change    ...    2.9468e-06  Tolerance :   1.0000e-07
  Last RMS-Density change    ...    2.3021e-07  Tolerance :   5.0000e-09
  Last Orbital Gradient      ...    9.7755e-07  Tolerance :   1.0000e-05
  Last Orbital Rotation      ...    1.8937e-06  Tolerance :   1.0000e-05

             **** THE GBW FILE WAS UPDATED (input.gbw) ****
             **** DENSITY FILE WAS UPDATED (input.scfp.tmp) ****
             **** ENERGY FILE WAS UPDATED (input.en.tmp) ****
----------------
ORBITAL ENERGIES
----------------

  NO   OCC          E(Eh)            E(eV) 
   0   2.0000     -19.197955      -522.4029 
   1   2.0000     -19.191970      -522.2400 
   2   2.0000     -10.389318      -282.7077 
   3   2.0000      -1.137664       -30.9574 
   4   2.0000      -1.079762       -29.3818 
   5   2.0000      -0.624714       -16.9993 
   6   2.0000      -0.550400       -14.9771 
   7   2.0000      -0.503732       -13.7073 
   8   2.0000      -0.498204       -13.5568 
   9   2.0000      -0.393376       -10.7043 
  10   2.0000      -0.356246        -9.6940 
  11   2.0000      -0.312028        -8.4907 
  12   0.0000      -0.053420        -1.4536 
  13   0.0000      -0.002269        -0.0617 
  14   0.0000       0.073523         2.0007 
  15   0.0000       0.164093         4.4652 
  16   0.0000       0.303731         8.2649 
  17   0.0000       0.407853        11.0982 
  18   0.0000       0.410979        11.1833 
  19   0.0000       0.457937        12.4611 
  20   0.0000       0.522021        14.2049 
  21   0.0000       0.577794        15.7226 
  22   0.0000       0.680397        18.5146 
  23   0.0000       0.849234        23.1088 
  24   0.0000       0.914599        24.8875 
  25   0.0000       0.932123        25.3643 
  26   0.0000       1.027888        27.9703 
  27   0.0000       1.053552        28.6686 
  28   0.0000       1.154394        31.4126 
  29   0.0000       1.338438        36.4208 
  30   0.0000       1.482214        40.3331 
  31   0.0000       1.539768        41.8992 
  32   0.0000       1.548307        42.1316 
  33   0.0000       1.661102        45.2009 
  34   0.0000       1.803479        49.0751 
  35   0.0000       2.290042        62.3152 
  36   0.0000       2.554890        69.5221 
  37   0.0000       2.607053        70.9415 
  38   0.0000       2.607381        70.9504 
  39   0.0000       2.670447        72.6666 
  40   0.0000       2.832019        77.0632 
  41   0.0000       3.112150        84.6859 
  42   0.0000       3.206184        87.2447 
  43   0.0000       3.338420        90.8430 
  44   0.0000       3.505910        95.4007 
  45   0.0000       3.729482       101.4844 

                    ********************************
                    * MULLIKEN POPULATION ANALYSIS *
                    ********************************

-----------------------
MULLIKEN ATOMIC CHARGES
-----------------------
   0 C :    0.169637
   1 O :   -0.288572
   2 O :   -0.094151
   3 H :   -0.099579
   4 H :    0.312664
Sum of atomic charges:   -0.0000000

--------------------------------
MULLIKEN REDUCED ORBITAL CHARGES
--------------------------------
  0 C s       :     3.126147  s :     3.126147
      pz      :     0.851214  p :     2.547143
      px      :     0.867275
      py      :     0.828654
      dz2     :     0.008085  d :     0.157073
      dxz     :     0.040868
      dyz     :     0.007999
      dx2y2   :     0.055173
      dxy     :     0.044950
  1 O s       :     3.813180  s :     3.813180
      pz      :     1.605342  p :     4.456879
      px      :     1.245057
      py      :     1.606479
      dz2     :     0.002187  d :     0.018513
      dxz     :     0.005060
      dyz     :     0.000237
      dx2y2   :     0.006925
      dxy     :     0.004105
  2 O s       :     3.727356  s :     3.727356
      pz      :     1.484059  p :     4.344830
      px      :     1.418551
      py      :     1.442220
      dz2     :     0.002327  d :     0.021965
      dxz     :     0.004404
      dyz     :     0.002222
      dx2y2   :     0.006129
      dxy     :     0.006883
  3 H s       :     1.099579  s :     1.099579
  4 H s       :     0.687336  s :     0.687336


                     *******************************
                     * LOEWDIN POPULATION ANALYSIS *
                     *******************************

----------------------
LOEWDIN ATOMIC CHARGES
----------------------
   0 C :    0.045109
   1 O :   -0.254061
   2 O :   -0.054894
   3 H :   -0.046308
   4 H :    0.310154

-------------------------------
LOEWDIN REDUCED ORBITAL CHARGES
-------------------------------
  0 C s       :     2.873165  s :     2.873165
      pz      :     0.844625  p :     2.741557
      px      :     1.029506
      py      :     0.867426
      dz2     :     0.020669  d :     0.340169
      dxz     :     0.078984
      dyz     :     0.015180
      dx2y2   :     0.125400
      dxy     :     0.099937
  1 O s       :     3.585812  s :     3.585812
      pz      :     1.589094  p :     4.635355
      px      :     1.417375
      py      :     1.628887
      dz2     :     0.005034  d :     0.032893
      dxz     :     0.006258
      dyz     :     0.000384
      dx2y2   :     0.014903
      dxy     :     0.006314
  2 O s       :     3.533526  s :     3.533526
      pz      :     1.465726  p :     4.485113
      px      :     1.511077
      py      :     1.508309
      dz2     :     0.005097  d :     0.036255
      dxz     :     0.005605
      dyz     :     0.002773
      dx2y2   :     0.008062
      dxy     :     0.014719
  3 H s       :     1.046308  s :     1.046308
  4 H s       :     0.689846  s :     0.689846


                      *****************************
                      * MAYER POPULATION ANALYSIS *
                      *****************************

  NA   - Mulliken gross atomic population
  ZA   - Total nuclear charge
  QA   - Mulliken gross atomic charge
  VA   - Mayer's total valence
  BVA  - Mayer's bonded valence
  FA   - Mayer's free valence

  ATOM       NA         ZA         QA         VA         BVA        FA
  0 C      5.8304     6.0000     0.1696     4.3177     4.3177    -0.0000
  1 O      8.2886     8.0000    -0.2886     2.0593     2.0593    -0.0000
  2 O      8.0942     8.0000    -0.0942     2.4658     2.4658    -0.0000
  3 H      1.0996     1.0000    -0.0996     0.9445     0.9445    -0.0000
  4 H      0.6873     1.0000     0.3127     0.8799     0.8799    -0.0000

  Mayer bond orders larger than 0.1
B(  0-C ,  1-O ) :   1.4778 B(  0-C ,  2-O ) :   2.1721 B(  0-C ,  3-H ) :   0.5051 
B(  0-C ,  4-H ) :   0.1627 B(  1-O ,  2-O ) :   0.1398 B(  1-O ,  3-H ) :   0.1206 
B(  1-O ,  4-H ) :   0.3212 B(  2-O ,  4-H ) :   0.1156 B(  3-H ,  4-H ) :   0.2805 


-------
TIMINGS
-------

Total SCF time: 0 days 0 hours 0 min 3 sec 

Total time                  ....       3.288 sec
Sum of individual times     ....       3.099 sec  ( 94.2%)

Fock matrix formation       ....       2.770 sec  ( 84.2%)
  XC integration            ....       0.392 sec  ( 14.2% of F)
    Basis function eval.    ....       0.160 sec  ( 40.8% of XC)
    Density eval.           ....       0.064 sec  ( 16.4% of XC)
    XC-Functional eval.     ....       0.072 sec  ( 18.4% of XC)
    XC-Potential eval.      ....       0.075 sec  ( 19.1% of XC)
Diagonalization             ....       0.002 sec  (  0.1%)
Density matrix formation    ....       0.000 sec  (  0.0%)
Population analysis         ....       0.001 sec  (  0.0%)
Initial guess               ....       0.130 sec  (  4.0%)
Orbital Transformation      ....       0.000 sec  (  0.0%)
Orbital Orthonormalization  ....       0.000 sec  (  0.0%)
DIIS solution               ....       0.001 sec  (  0.0%)
SOSCF solution              ....       0.001 sec  (  0.0%)
Grid generation             ....       0.194 sec  (  5.9%)

-------------------------   --------------------
FINAL SINGLE POINT ENERGY      -189.403313960614
-------------------------   --------------------

------------------------------------------------------------------------------
                         ORCA SCF GRADIENT CALCULATION
------------------------------------------------------------------------------

Gradient of the Kohn-Sham DFT energy:
Kohn-Sham wavefunction type      ... RKS
Hartree-Fock exchange scaling    ...    0.200
Number of operators              ...    1
Number of atoms                  ...    5
Basis set dimensions             ...   46
Integral neglect threshold       ... 2.5e-11
Integral primitive cutoff        ... 2.5e-12

Nuclear repulsion gradient       ... done
One Electron Gradient            ... done
Pre-screening matrix             ... done
Starting the two electron gradient:
Two electron gradient done
Exchange-correlation gradient    ... done

------------------
CARTESIAN GRADIENT
------------------

   1   C   :   -0.000170270   -0.000268086    0.000048199
   2   O   :    0.000057448    0.000099769    0.000042468
   3   O   :    0.000002959    0.000008050   -0.000001732
   4   H   :    0.000101995    0.000036667   -0.000055446
   5   H   :    0.000007868    0.000123599   -0.000033489

Difference to translation invariance:
           :   -0.0000000000    0.0000000000    0.0000000000

Norm of the cartesian gradient     ...    0.0003867828
RMS gradient                       ...    0.0000998669
MAX gradient                       ...    0.0002680857

-------
TIMINGS
-------

Total SCF gradient time            ...        0.677 sec

One electron gradient       ....       0.005 sec  (  0.7%)
Prescreening matrices       ....       0.015 sec  (  2.2%)
Two electron gradient       ....       0.193 sec  ( 28.5%)
XC gradient                 ....       0.326 sec  ( 48.1%)
------------------------------------------------------------------------------
                         ORCA GEOMETRY RELAXATION STEP
------------------------------------------------------------------------------

Reading the OPT-File                    .... done
Getting information on internals        .... done
Copying old internal coords+grads       .... done
Making the new internal coordinates     .... (new redundants).... done
Validating the new internal coordinates .... (new redundants).... done
Calculating the B-matrix                .... done
Calculating the G,G- and P matrices     .... done
Transforming gradient to internals      .... done
Projecting the internal gradient        .... done
Number of atoms                         ....   5
Number of internal coordinates          ....   9
Current Energy                          ....  -189.403313961 Eh
Current gradient norm                   ....     0.000386783 Eh/bohr
Maximum allowed component of the step   ....  0.300
Current trust radius                    ....  0.300
Evaluating the initial hessian          ....  (Almloef) done
Projecting the Hessian                  .... done
Diagonalizing the Hessian               .... done
Dimension of the hessian                ....   9
Lowest eigenvalues of the Hessian:
  0.014289082  0.058981983  0.078325580  0.141416709  0.180403616
Hessian has   0 negative eigenvalues
Taking P-RFO step
Searching for lambda that maximizes along the lowest mode
TS mode is mode number   0 with eigenvalue   0.01428908 and components:
   1.    0.00000000
   2.   -0.00000000
   3.   -0.00000000
   4.    0.00000000
   5.   -0.00000000
   6.   -0.00000000
   7.    0.00000000
   8.    0.00000000
   9.    1.00000000

Lambda that maximizes along the TS mode:       0.01428908
Searching for lambda that minimizes along all other modes
In cycle   1: lambdaN =  -0.00000134   step =   0.00000134
In cycle   2: lambdaN =  -0.00000134   step =   0.00000000
Lambda that minimizes along all other modes:  -0.00000134
Calculated stepsize too large (   0.3000 >    0.3000). Scaled with    1.0000.
The final length of the internal step   ....       0.3000
Converting the step to cartesian space:
 Initial RMS(Int)=    0.1000000000
Transforming coordinates:
 Iter   0:  RMS(Cart)=    0.0473154709 RMS(Int)=    0.0663099989
 Iter   1:  RMS(Cart)=    0.0253174426 RMS(Int)=    0.0342159382
 Iter   2:  RMS(Cart)=    0.0097628871 RMS(Int)=    0.0098613780
 Iter   3:  RMS(Cart)=    0.0020326688 RMS(Int)=    0.0029032695
 Iter   4:  RMS(Cart)=    0.0009415590 RMS(Int)=    0.0009468077
 Iter   5:  RMS(Cart)=    0.0002189536 RMS(Int)=    0.0002964783
 Iter   6:  RMS(Cart)=    0.0000852310 RMS(Int)=    0.0000893018
 Iter   7:  RMS(Cart)=    0.0000239421 RMS(Int)=    0.0000293521
 Iter   8:  RMS(Cart)=    0.0000074292 RMS(Int)=    0.0000084654
 Iter   9:  RMS(Cart)=    0.0000025782 RMS(Int)=    0.0000028852
 Iter  10:  RMS(Cart)=    0.0000006376 RMS(Int)=    0.0000008137
 Iter  11:  RMS(Cart)=    0.0000002674 RMS(Int)=    0.0000002796
 Iter  12:  RMS(Cart)=    0.0000000564 RMS(Int)=    0.0000000796
done
Storing new coordinates                 .... done

                                .--------------------.
          ----------------------|Geometry convergence|-------------------------
          Item                value                   Tolerance       Converged
          ---------------------------------------------------------------------
          RMS gradient        0.0002084262            0.0001000000      NO
          MAX gradient        0.0005617726            0.0003000000      NO
          RMS step            0.1000000000            0.0020000000      NO
          MAX step            0.2999901739            0.0040000000      NO
          ........................................................
          Max(Bonds)      0.0006      Max(Angles)    0.10
          Max(Dihed)       17.19      Max(Improp)    0.00
          ---------------------------------------------------------------------

The optimization has not yet converged - more geometry cycles are needed


    ---------------------------------------------------------------------------
                         Redundant Internal Coordinates
                            (Angstroem and degrees)

        Definition                    Value    dE/dq     Step     New-Value  comp.(TS mode)
    ----------------------------------------------------------------------------
     1. B(O   1,C   0)                1.2562 -0.000184  0.0001    1.2563   
     2. B(O   2,C   0)                1.1691  0.000006 -0.0000    1.1691   
     3. B(H   4,O   1)                1.3144 -0.000118  0.0004    1.3149   
     4. B(H   4,H   3)                1.0553  0.000096 -0.0006    1.0546   
     5. A(O   1,C   0,O   2)          146.47 -0.000034    0.00    146.48   
     6. A(C   0,O   1,H   4)           70.16 -0.000562    0.10     70.26   
     7. A(O   1,H   4,H   3)          120.95 -0.000132    0.04    121.00   
     8. D(H   4,O   1,C   0,O   2)    180.00  0.000000   -0.00    180.00   
     9. D(H   3,H   4,O   1,C   0)      0.03  0.000001   17.19     17.22          1.00
    ----------------------------------------------------------------------------

         *************************************************************
         *                GEOMETRY OPTIMIZATION CYCLE   2            *
         *************************************************************
---------------------------------
CARTESIAN COORDINATES (ANGSTROEM)
---------------------------------
  C      0.166435    0.410232   -0.089096
  O     -1.089015    0.364534   -0.078632
  O      1.116518    1.088611   -0.151246
  H      0.405544   -1.011654    0.297830
  H     -0.599481   -0.851722    0.021144

----------------------------
CARTESIAN COORDINATES (A.U.)
----------------------------
  NO LB      ZA    FRAG     MASS         X           Y           Z
   0 C     6.0000    0    12.011    0.314517    0.775226   -0.168367
   1 O     8.0000    0    15.999   -2.057940    0.688869   -0.148592
   2 O     8.0000    0    15.999    2.109913    2.057177   -0.285813
   3 H     1.0000    0     1.008    0.766366   -1.911750    0.562817
   4 H     1.0000    0     1.008   -1.132854   -1.609522    0.039957

--------------------------------
INTERNAL COORDINATES (ANGSTROEM)
--------------------------------
 C      0   0   0     0.000000000000     0.00000000     0.00000000
 O      1   0   0     1.256325567506     0.00000000     0.00000000
 O      1   2   0     1.169067089516   146.47738645     0.00000000
 H      1   2   3     1.492864592635    97.07983433   169.59895887
 H      4   1   2     1.054612352563    68.58780653    13.15960139

---------------------------
INTERNAL COORDINATES (A.U.)
---------------------------
 C      0   0   0     0.000000000000     0.00000000     0.00000000
 O      1   0   0     2.374111257629     0.00000000     0.00000000
 O      1   2   0     2.209216631366   146.47738645     0.00000000
 H      1   2   3     2.821105235107    97.07983433   169.59895887
 H      4   1   2     1.992928523794    68.58780653    13.15960139


Diagonalization of the overlap matrix:
Smallest eigenvalue                        ... 9.986e-03
Time for diagonalization                   ...    0.001 sec
Threshold for overlap eigenvalues          ... 1.000e-08
Number of eigenvalues below threshold      ... 0
Time for construction of square roots      ...    0.000 sec
Total time needed                          ...    0.001 sec

-------------------
DFT GRID GENERATION
-------------------

General Integration Accuracy     IntAcc      ...  4.340
Radial Grid Type                 RadialGrid  ... Gauss-Chebyshev
Angular Grid (max. acc.)         AngularGrid ... Lebedev-110
Angular grid pruning method      GridPruning ... 3 (G Style)
Weight generation scheme         WeightScheme... Becke
Basis function cutoff            BFCut       ...    1.0000e-11
Integration weight cutoff        WCut        ...    1.0000e-14
Grids for H and He will be reduced by one unit

# of grid points (after initial pruning)     ...   6676 (   0.0 sec)
# of grid points (after weights+screening)   ...   6545 (   0.0 sec)
nearest neighbour list constructed           ...    0.0 sec
Grid point re-assignment to atoms done       ...    0.0 sec
Grid point division into batches done        ...    0.0 sec
Reduced shell lists constructed in    0.0 sec

Total number of grid points                  ...     6545
Total number of batches                      ...      104
Average number of points per batch           ...       62
Average number of grid points per atom       ...     1309
Average number of shells per batch           ...    18.61 (84.59%)
Average number of basis functions per batch  ...    39.60 (86.09%)
Average number of large shells per batch     ...    16.80 (90.28%)
Average number of large basis fcns per batch ...    35.30 (89.13%)
Maximum spatial batch extension              ...  17.94, 19.49, 22.48 au
Average spatial batch extension              ...   4.63,  4.61,  5.07 au

Time for grid setup =    0.043 sec

--------------
SCF ITERATIONS
--------------
ITER       Energy         Delta-E        Max-DP      RMS-DP      [F,P]     Damp
               ***  Starting incremental Fock matrix formation  ***
  0   -189.3961829731   0.000000000000 0.00896001  0.00056610  0.0299773 0.7000
                      *** Initiating the SOSCF procedure ***
                      *** Re-Reading the Fockian *** 
                      *** Removing any level shift *** 
ITER      Energy       Delta-E        Grad      Rot      Max-DP    RMS-DP
  1   -189.39728631  -0.0011033404  0.003039  0.003039  0.027242  0.001830
               *** Restarting incremental Fock matrix formation ***
  2   -189.40033288  -0.0030465705  0.001758  0.005696  0.008039  0.000564
  3   -189.40042613  -0.0000932480  0.002342  0.005555  0.005482  0.000451
  4   -189.40038943   0.0000367031  0.003328  0.003469  0.003817  0.000312
  5   -189.40045285  -0.0000634175  0.000215  0.000428  0.000835  0.000042
  6   -189.40045232   0.0000005235  0.000375  0.000261  0.000452  0.000027
  7   -189.40045314  -0.0000008166  0.000038  0.000079  0.000106  0.000010
  8   -189.40045314   0.0000000033  0.000037  0.000038  0.000066  0.000005
                  ***Gradient check signals convergence***
              ***Rediagonalizing the Fockian in SOSCF/NRSCF***

               *****************************************************
               *                     SUCCESS                       *
               *           SCF CONVERGED AFTER   9 CYCLES          *
               *****************************************************

Setting up the final grid:

General Integration Accuracy     IntAcc      ...  4.670
Radial Grid Type                 RadialGrid  ... Gauss-Chebyshev
Angular Grid (max. acc.)         AngularGrid ... Lebedev-302
Angular grid pruning method      GridPruning ... 3 (G Style)
Weight generation scheme         WeightScheme... Becke
Basis function cutoff            BFCut       ...    1.0000e-11
Integration weight cutoff        WCut        ...    1.0000e-14
Grids for H and He will be reduced by one unit

# of grid points (after initial pruning)     ...  25424 (   0.0 sec)
# of grid points (after weights+screening)   ...  24779 (   0.0 sec)
nearest neighbour list constructed           ...    0.0 sec
Grid point re-assignment to atoms done       ...    0.0 sec
Grid point division into batches done        ...    0.1 sec
Reduced shell lists constructed in    0.1 sec

Total number of grid points                  ...    24779
Total number of batches                      ...      390
Average number of points per batch           ...       63
Average number of grid points per atom       ...     4956
Average number of shells per batch           ...    17.05 (77.48%)
Average number of basis functions per batch  ...    36.28 (78.88%)
Average number of large shells per batch     ...    15.06 (88.33%)
Average number of large basis fcns per batch ...    31.54 (86.93%)
Maximum spatial batch extension              ...  16.00, 17.01, 18.66 au
Average spatial batch extension              ...   2.96,  3.05,  3.43 au

Final grid set up in    0.2 sec
Final integration                            ... done (   0.1 sec)
Change in XC energy                          ...    -0.000201913
Integrated number of electrons               ...    24.000003725
Previous integrated no of electrons          ...    23.999824718
Total Energy       :         -189.40065507 Eh           -5153.85384 eV
  Last Energy change         ...   -1.7302e-08  Tolerance :   1.0000e-08
  Last MAX-Density change    ...    3.7547e-06  Tolerance :   1.0000e-07
             **** THE GBW FILE WAS UPDATED (input.gbw) ****
             **** DENSITY FILE WAS UPDATED (input.scfp.tmp) ****
             **** ENERGY FILE WAS UPDATED (input.en.tmp) ****
Total SCF time: 0 days 0 hours 0 min 2 sec 

-------------------------   --------------------
FINAL SINGLE POINT ENERGY      -189.400655066050
-------------------------   --------------------

------------------------------------------------------------------------------
                         ORCA SCF GRADIENT CALCULATION
------------------------------------------------------------------------------

Gradient of the Kohn-Sham DFT energy:
Kohn-Sham wavefunction type      ... RKS
Hartree-Fock exchange scaling    ...    0.200
Number of operators              ...    1
Number of atoms                  ...    5
Basis set dimensions             ...   46
Integral neglect threshold       ... 2.5e-11
Integral primitive cutoff        ... 2.5e-12

Nuclear repulsion gradient       ... done
One Electron Gradient            ... done
Pre-screening matrix             ... done
Starting the two electron gradient:
Two electron gradient done
Exchange-correlation gradient    ... done

------------------
CARTESIAN GRADIENT
------------------

   1   C   :    0.006088513   -0.008319663   -0.017434759
   2   O   :   -0.002170756   -0.001884502    0.012310871
   3   O   :    0.000178469    0.005361621    0.004834313
   4   H   :   -0.001424238    0.001760211    0.010155751
   5   H   :   -0.002671988    0.003082333   -0.009866175

Difference to translation invariance:
           :   -0.0000000000   -0.0000000000    0.0000000000

Norm of the cartesian gradient     ...    0.0290598670
RMS gradient                       ...    0.0075032254
MAX gradient                       ...    0.0174347589

-------
TIMINGS
-------

Total SCF gradient time            ...        0.681 sec

One electron gradient       ....       0.005 sec  (  0.7%)
Prescreening matrices       ....       0.015 sec  (  2.1%)
Two electron gradient       ....       0.196 sec  ( 28.7%)
XC gradient                 ....       0.325 sec  ( 47.7%)
------------------------------------------------------------------------------
                         ORCA GEOMETRY RELAXATION STEP
------------------------------------------------------------------------------

Reading the OPT-File                    .... done
Getting information on internals        .... done
Copying old internal coords+grads       .... done
Making the new internal coordinates     .... (new redundants).... done
Validating the new internal coordinates .... (new redundants).... done
Calculating the B-matrix                .... done
Calculating the G,G- and P matrices     .... done
Transforming gradient to internals      .... done
Projecting the internal gradient        .... done
Number of atoms                         ....   5
Number of internal coordinates          ....   9
Current Energy                          ....  -189.400655066 Eh
Current gradient norm                   ....     0.029059867 Eh/bohr
Maximum allowed component of the step   ....  0.300
Current trust radius                    ....  0.300
Updating the Hessian (Bofill)          .... Diagonalizing the Hessian               .... done
Dimension of the hessian                ....   9
Lowest eigenvalues of the Hessian:
  0.035602544  0.074681603  0.079820687  0.148682068  0.184970958
Hessian has   0 negative eigenvalues
Taking P-RFO step
Searching for lambda that maximizes along the lowest mode
TS mode is mode number   0 with eigenvalue   0.03560254 and components:
   1.    0.01493438
   2.    0.00515193
   3.   -0.11912883
   4.    0.05312898
   5.   -0.03758948
   6.    0.02758309
   7.   -0.06567657
   8.    0.57774525
   9.   -0.80153557

Lambda that maximizes along the TS mode:       0.03755232
Searching for lambda that minimizes along all other modes
In cycle   1: lambdaN =  -0.00303330   step =   0.00303330
In cycle   2: lambdaN =  -0.00303659   step =   0.00000329
In cycle   3: lambdaN =  -0.00303659   step =   0.00000000
Lambda that minimizes along all other modes:  -0.00303659
Calculated stepsize too large (   0.6873 >    0.3000). Scaled with    0.4365.
The final length of the internal step   ....       0.3000
Converting the step to cartesian space:
 Initial RMS(Int)=    0.1000000000
Transforming coordinates:
 Iter   0:  RMS(Cart)=    0.0750709966 RMS(Int)=    0.1024826325
 Iter   1:  RMS(Cart)=    0.0081656081 RMS(Int)=    0.0124189777
 Iter   2:  RMS(Cart)=    0.0017405804 RMS(Int)=    0.0017330832
 Iter   3:  RMS(Cart)=    0.0003435550 RMS(Int)=    0.0004385950
 Iter   4:  RMS(Cart)=    0.0000559717 RMS(Int)=    0.0000828827
 Iter   5:  RMS(Cart)=    0.0000141631 RMS(Int)=    0.0000131613
 Iter   6:  RMS(Cart)=    0.0000020456 RMS(Int)=    0.0000033402
 Iter   7:  RMS(Cart)=    0.0000004631 RMS(Int)=    0.0000004926
 Iter   8:  RMS(Cart)=    0.0000000925 RMS(Int)=    0.0000001072
done
Storing new coordinates                 .... done

                                .--------------------.
          ----------------------|Geometry convergence|-------------------------
          Item                value                   Tolerance       Converged
          ---------------------------------------------------------------------
          Energy change       0.0026588946            0.0000050000      NO
          RMS gradient        0.0077116977            0.0001000000      NO
          MAX gradient        0.0172982074            0.0003000000      NO
          RMS step            0.1000000000            0.0020000000      NO
          MAX step            0.1309457512            0.0040000000      NO
          ........................................................
          Max(Bonds)      0.0693      Max(Angles)    7.50
          Max(Dihed)        7.50      Max(Improp)    0.00
          ---------------------------------------------------------------------

The optimization has not yet converged - more geometry cycles are needed


    ---------------------------------------------------------------------------
                         Redundant Internal Coordinates
                            (Angstroem and degrees)

        Definition                    Value    dE/dq     Step     New-Value  comp.(TS mode)
    ----------------------------------------------------------------------------
     1. B(O   1,C   0)                1.2563  0.006238 -0.0160    1.2403   
     2. B(O   2,C   0)                1.1691  0.002995 -0.0055    1.1636   
     3. B(H   4,O   1)                1.3149 -0.005972  0.0693    1.3842   
     4. B(H   4,H   3)                1.0546  0.001058 -0.0567    0.9979   
     5. A(O   1,C   0,O   2)          146.48 -0.008720    4.36    150.83   
     6. A(C   0,O   1,H   4)           70.26  0.003723   -3.20     67.06   
     7. A(O   1,H   4,H   3)          121.00 -0.004504    7.50    128.50   
     8. D(H   4,O   1,C   0,O   2)    180.00  0.006414   -7.50    172.49          0.58
     9. D(H   3,H   4,O   1,C   0)     17.22  0.017298    7.50     24.72          0.80
    ----------------------------------------------------------------------------

         *************************************************************
         *                GEOMETRY OPTIMIZATION CYCLE   3            *
         *************************************************************
---------------------------------
CARTESIAN COORDINATES (ANGSTROEM)
---------------------------------
  C      0.124421    0.459939   -0.073081
  O     -1.114506    0.400832   -0.073985
  O      1.112787    1.065519   -0.174347
  H      0.392357   -1.081137    0.331482
  H     -0.515058   -0.845154   -0.010068

----------------------------
CARTESIAN COORDINATES (A.U.)
----------------------------
  NO LB      ZA    FRAG     MASS         X           Y           Z
   0 C     6.0000    0    12.011    0.235121    0.869158   -0.138103
   1 O     8.0000    0    15.999   -2.106111    0.757463   -0.139811
   2 O     8.0000    0    15.999    2.102862    2.013540   -0.329469
   3 H     1.0000    0     1.008    0.741448   -2.043052    0.626411
   4 H     1.0000    0     1.008   -0.973318   -1.597109   -0.019026

--------------------------------
INTERNAL COORDINATES (ANGSTROEM)
--------------------------------
 C      0   0   0     0.000000000000     0.00000000     0.00000000
 O      1   0   0     1.240335930357     0.00000000     0.00000000
 O      1   2   0     1.163550767413   150.83412641     0.00000000
 H      1   2   3     1.615665199541    96.91387438   175.75895136
 H      4   1   2     0.997870930137    62.47863558    17.05491876

---------------------------
INTERNAL COORDINATES (A.U.)
---------------------------
 C      0   0   0     0.000000000000     0.00000000     0.00000000
 O      1   0   0     2.343895222437     0.00000000     0.00000000
 O      1   2   0     2.198792293324   150.83412641     0.00000000
 H      1   2   3     3.053164751240    96.91387438   175.75895136
 H      4   1   2     1.885702774960    62.47863558    17.05491876


Diagonalization of the overlap matrix:
Smallest eigenvalue                        ... 9.041e-03
Time for diagonalization                   ...    0.001 sec
Threshold for overlap eigenvalues          ... 1.000e-08
Number of eigenvalues below threshold      ... 0
Time for construction of square roots      ...    0.000 sec
Total time needed                          ...    0.001 sec

-------------------
DFT GRID GENERATION
-------------------

General Integration Accuracy     IntAcc      ...  4.340
Radial Grid Type                 RadialGrid  ... Gauss-Chebyshev
Angular Grid (max. acc.)         AngularGrid ... Lebedev-110
Angular grid pruning method      GridPruning ... 3 (G Style)
Weight generation scheme         WeightScheme... Becke
Basis function cutoff            BFCut       ...    1.0000e-11
Integration weight cutoff        WCut        ...    1.0000e-14
Grids for H and He will be reduced by one unit

# of grid points (after initial pruning)     ...   6676 (   0.0 sec)
# of grid points (after weights+screening)   ...   6540 (   0.0 sec)
nearest neighbour list constructed           ...    0.0 sec
Grid point re-assignment to atoms done       ...    0.0 sec
Grid point division into batches done        ...    0.0 sec
Reduced shell lists constructed in    0.0 sec

Total number of grid points                  ...     6540
Total number of batches                      ...      105
Average number of points per batch           ...       62
Average number of grid points per atom       ...     1308
Average number of shells per batch           ...    18.58 (84.48%)
Average number of basis functions per batch  ...    39.53 (85.93%)
Average number of large shells per batch     ...    16.91 (90.96%)
Average number of large basis fcns per batch ...    35.64 (90.17%)
Maximum spatial batch extension              ...  18.28, 19.49, 22.48 au
Average spatial batch extension              ...   4.48,  4.59,  5.14 au

Time for grid setup =    0.043 sec

--------------
SCF ITERATIONS
--------------
ITER       Energy         Delta-E        Max-DP      RMS-DP      [F,P]     Damp
               ***  Starting incremental Fock matrix formation  ***
  0   -189.3945765517   0.000000000000 0.01333313  0.00120089  0.0375431 0.7000
  1   -189.3977857741  -0.003209222419 0.01417499  0.00119266  0.0293089 0.7000
                               ***Turning on DIIS***
  2   -189.4005053891  -0.002719615044 0.04104790  0.00335040  0.0218469 0.0000
  3   -189.4078046463  -0.007299257141 0.00944307  0.00072665  0.0073910 0.0000
  4   -189.4081132768  -0.000308630521 0.00515147  0.00039046  0.0032259 0.0000
                      *** Initiating the SOSCF procedure ***
                           *** Shutting down DIIS ***
                      *** Re-Reading the Fockian *** 
                      *** Removing any level shift *** 
ITER      Energy       Delta-E        Grad      Rot      Max-DP    RMS-DP
  5   -189.40819556  -0.0000822862  0.001872  0.001872  0.003551  0.000240
               *** Restarting incremental Fock matrix formation ***
  6   -189.40822379  -0.0000282299  0.000940  0.003442  0.003786  0.000231
  7   -189.40823287  -0.0000090796  0.000463  0.002248  0.002850  0.000179
  8   -189.40822955   0.0000033228  0.000907  0.001344  0.001822  0.000114
  9   -189.40823433  -0.0000047782  0.000091  0.000181  0.000380  0.000020
 10   -189.40823424   0.0000000904  0.000165  0.000117  0.000200  0.000012
 11   -189.40823438  -0.0000001452  0.000020  0.000053  0.000050  0.000005
 12   -189.40823438   0.0000000007  0.000018  0.000030  0.000032  0.000003
                 **** Energy Check signals convergence ****
              ***Rediagonalizing the Fockian in SOSCF/NRSCF***

               *****************************************************
               *                     SUCCESS                       *
               *           SCF CONVERGED AFTER  13 CYCLES          *
               *****************************************************

Setting up the final grid:

General Integration Accuracy     IntAcc      ...  4.670
Radial Grid Type                 RadialGrid  ... Gauss-Chebyshev
Angular Grid (max. acc.)         AngularGrid ... Lebedev-302
Angular grid pruning method      GridPruning ... 3 (G Style)
Weight generation scheme         WeightScheme... Becke
Basis function cutoff            BFCut       ...    1.0000e-11
Integration weight cutoff        WCut        ...    1.0000e-14
Grids for H and He will be reduced by one unit

# of grid points (after initial pruning)     ...  25424 (   0.0 sec)
# of grid points (after weights+screening)   ...  24795 (   0.0 sec)
nearest neighbour list constructed           ...    0.0 sec
Grid point re-assignment to atoms done       ...    0.0 sec
Grid point division into batches done        ...    0.1 sec
Reduced shell lists constructed in    0.1 sec

Total number of grid points                  ...    24795
Total number of batches                      ...      389
Average number of points per batch           ...       63
Average number of grid points per atom       ...     4959
Average number of shells per batch           ...    17.07 (77.58%)
Average number of basis functions per batch  ...    36.34 (79.01%)
Average number of large shells per batch     ...    14.97 (87.74%)
Average number of large basis fcns per batch ...    31.30 (86.13%)
Maximum spatial batch extension              ...  15.77, 16.88, 18.72 au
Average spatial batch extension              ...   3.01,  3.17,  3.50 au

Final grid set up in    0.2 sec
Final integration                            ... done (   0.1 sec)
Change in XC energy                          ...    -0.000138496
Integrated number of electrons               ...    23.999990917
Previous integrated no of electrons          ...    24.000506195
Total Energy       :         -189.40837288 Eh           -5154.06385 eV
  Last Energy change         ...   -4.2999e-09  Tolerance :   1.0000e-08
  Last MAX-Density change    ...    4.0244e-07  Tolerance :   1.0000e-07
             **** THE GBW FILE WAS UPDATED (input.gbw) ****
             **** DENSITY FILE WAS UPDATED (input.scfp.tmp) ****
             **** ENERGY FILE WAS UPDATED (input.en.tmp) ****
Total SCF time: 0 days 0 hours 0 min 3 sec 

-------------------------   --------------------
FINAL SINGLE POINT ENERGY      -189.408372882049
-------------------------   --------------------

------------------------------------------------------------------------------
                         ORCA SCF GRADIENT CALCULATION
------------------------------------------------------------------------------

Gradient of the Kohn-Sham DFT energy:
Kohn-Sham wavefunction type      ... RKS
Hartree-Fock exchange scaling    ...    0.200
Number of operators              ...    1
Number of atoms                  ...    5
Basis set dimensions             ...   46
Integral neglect threshold       ... 2.5e-11
Integral primitive cutoff        ... 2.5e-12

Nuclear repulsion gradient       ... done
One Electron Gradient            ... done
Pre-screening matrix             ... done
Starting the two electron gradient:
Two electron gradient done
Exchange-correlation gradient    ... done

------------------
CARTESIAN GRADIENT
------------------

   1   C   :    0.041828286   -0.036843114   -0.001595953
   2   O   :   -0.015435631   -0.023373512    0.008932651
   3   O   :   -0.007686871    0.010944930   -0.000342675
   4   H   :    0.016882152    0.009169263    0.013568428
   5   H   :   -0.035587937    0.040102432   -0.020562452

Difference to translation invariance:
           :   -0.0000000000    0.0000000000    0.0000000000

Norm of the cartesian gradient     ...    0.0894630764
RMS gradient                       ...    0.0230992670
MAX gradient                       ...    0.0418282862

-------
TIMINGS
-------

Total SCF gradient time            ...        0.682 sec

One electron gradient       ....       0.005 sec  (  0.7%)
Prescreening matrices       ....       0.014 sec  (  2.1%)
Two electron gradient       ....       0.196 sec  ( 28.8%)
XC gradient                 ....       0.325 sec  ( 47.7%)
------------------------------------------------------------------------------
                         ORCA GEOMETRY RELAXATION STEP
------------------------------------------------------------------------------

Reading the OPT-File                    .... done
Getting information on internals        .... done
Copying old internal coords+grads       .... done
Making the new internal coordinates     .... (new redundants).... done
Validating the new internal coordinates .... (new redundants).... done
Calculating the B-matrix                .... done
Calculating the G,G- and P matrices     .... done
Transforming gradient to internals      .... done
Projecting the internal gradient        .... done
Number of atoms                         ....   5
Number of internal coordinates          ....   9
Current Energy                          ....  -189.408372882 Eh
Current gradient norm                   ....     0.089463076 Eh/bohr
Maximum allowed component of the step   ....  0.300
Current trust radius                    ....  0.300
Updating the Hessian (Bofill)          .... Diagonalizing the Hessian               .... done
Dimension of the hessian                ....   9
Lowest eigenvalues of the Hessian:
 -0.248962446  0.070188573  0.083349193  0.118478542  0.168288769
Hessian has   1 negative eigenvalues
Taking P-RFO step
Searching for lambda that maximizes along the lowest mode
TS mode is mode number   0 with eigenvalue  -0.24896245 and components:
   1.    0.17015162
   2.    0.02283152
   3.   -0.66769744
   4.    0.34831645
   5.   -0.29634153
   6.   -0.11094778
   7.   -0.45332332
   8.    0.12483124
   9.   -0.28665371

Lambda that maximizes along the TS mode:       0.01843412
Searching for lambda that minimizes along all other modes
In cycle   1: lambdaN =  -0.00923408   step =   0.00923408
In cycle   2: lambdaN =  -0.00929208   step =   0.00005800
In cycle   3: lambdaN =  -0.00929209   step =   0.00000000
Lambda that minimizes along all other modes:  -0.00929209
Calculated stepsize too large (   0.3604 >    0.3000). Scaled with    0.8324.
The final length of the internal step   ....       0.3000
Converting the step to cartesian space:
 Initial RMS(Int)=    0.1000000000
Transforming coordinates:
 Iter   0:  RMS(Cart)=    0.0694104601 RMS(Int)=    0.0958170565
 Iter   1:  RMS(Cart)=    0.0086577785 RMS(Int)=    0.0133819716
 Iter   2:  RMS(Cart)=    0.0029139955 RMS(Int)=    0.0028865063
 Iter   3:  RMS(Cart)=    0.0006356769 RMS(Int)=    0.0007685754
 Iter   4:  RMS(Cart)=    0.0001776622 RMS(Int)=    0.0002382026
 Iter   5:  RMS(Cart)=    0.0000535156 RMS(Int)=    0.0000499468
 Iter   6:  RMS(Cart)=    0.0000109033 RMS(Int)=    0.0000162860
 Iter   7:  RMS(Cart)=    0.0000037773 RMS(Int)=    0.0000041239
 Iter   8:  RMS(Cart)=    0.0000008990 RMS(Int)=    0.0000009757
 Iter   9:  RMS(Cart)=    0.0000002227 RMS(Int)=    0.0000003217
 Iter  10:  RMS(Cart)=    0.0000000732 RMS(Int)=    0.0000000689
done
Storing new coordinates                 .... done

                                .--------------------.
          ----------------------|Geometry convergence|-------------------------
          Item                value                   Tolerance       Converged
          ---------------------------------------------------------------------
          Energy change      -0.0077178160            0.0000050000      NO
          RMS gradient        0.0279905584            0.0001000000      NO
          MAX gradient        0.0527653686            0.0003000000      NO
          RMS step            0.1000000000            0.0020000000      NO
          MAX step            0.2497061427            0.0040000000      NO
          ........................................................
          Max(Bonds)      0.0467      Max(Angles)    5.21
          Max(Dihed)       14.31      Max(Improp)    0.00
          ---------------------------------------------------------------------

The optimization has not yet converged - more geometry cycles are needed


    ---------------------------------------------------------------------------
                         Redundant Internal Coordinates
                            (Angstroem and degrees)

        Definition                    Value    dE/dq     Step     New-Value  comp.(TS mode)
    ----------------------------------------------------------------------------
     1. B(O   1,C   0)                1.2403  0.032845  0.0115    1.2518   
     2. B(O   2,C   0)                1.1636 -0.000808  0.0041    1.1676   
     3. B(H   4,O   1)                1.3842 -0.052765 -0.0467    1.3374          0.67
     4. B(H   4,H   3)                0.9979  0.017845  0.0361    1.0339          0.35
     5. A(O   1,C   0,O   2)          150.83 -0.029175   -3.15    147.69          0.30
     6. A(C   0,O   1,H   4)           67.06 -0.034744    2.23     69.30   
     7. A(O   1,H   4,H   3)          128.50 -0.027533   -5.21    123.29          0.45
     8. D(H   4,O   1,C   0,O   2)    172.49  0.001819    2.48    174.97   
     9. D(H   3,H   4,O   1,C   0)     24.72  0.007038  -14.31     10.41          0.29
    ----------------------------------------------------------------------------

         *************************************************************
         *                GEOMETRY OPTIMIZATION CYCLE   4            *
         *************************************************************
---------------------------------
CARTESIAN COORDINATES (ANGSTROEM)
---------------------------------
  C      0.151371    0.423199   -0.063172
  O     -1.098731    0.374285   -0.107372
  O      1.117358    1.072726   -0.154593
  H      0.413103   -1.021058    0.271004
  H     -0.583100   -0.849152    0.054134

----------------------------
CARTESIAN COORDINATES (A.U.)
----------------------------
  NO LB      ZA    FRAG     MASS         X           Y           Z
   0 C     6.0000    0    12.011    0.286051    0.799731   -0.119378
   1 O     8.0000    0    15.999   -2.076302    0.707295   -0.202903
   2 O     8.0000    0    15.999    2.111501    2.027159   -0.292139
   3 H     1.0000    0     1.008    0.780652   -1.929520    0.512124
   4 H     1.0000    0     1.008   -1.101900   -1.604665    0.102298

--------------------------------
INTERNAL COORDINATES (ANGSTROEM)
--------------------------------
 C      0   0   0     0.000000000000     0.00000000     0.00000000
 O      1   0   0     1.251840099627     0.00000000     0.00000000
 O      1   2   0     1.167635886428   147.68533154     0.00000000
 H      1   2   3     1.505342930231    98.27801956   179.00827499
 H      4   1   2     1.033927607939    68.06175413     7.86158574

---------------------------
INTERNAL COORDINATES (A.U.)
---------------------------
 C      0   0   0     0.000000000000     0.00000000     0.00000000
 O      1   0   0     2.365634951757     0.00000000     0.00000000
 O      1   2   0     2.206512049487   147.68533154     0.00000000
 H      1   2   3     2.844685875770    98.27801956   179.00827499
 H      4   1   2     1.953840021305    68.06175413     7.86158574


Diagonalization of the overlap matrix:
Smallest eigenvalue                        ... 9.615e-03
Time for diagonalization                   ...    0.001 sec
Threshold for overlap eigenvalues          ... 1.000e-08
Number of eigenvalues below threshold      ... 0
Time for construction of square roots      ...    0.000 sec
Total time needed                          ...    0.001 sec

-------------------
DFT GRID GENERATION
-------------------

General Integration Accuracy     IntAcc      ...  4.340
Radial Grid Type                 RadialGrid  ... Gauss-Chebyshev
Angular Grid (max. acc.)         AngularGrid ... Lebedev-110
Angular grid pruning method      GridPruning ... 3 (G Style)
Weight generation scheme         WeightScheme... Becke
Basis function cutoff            BFCut       ...    1.0000e-11
Integration weight cutoff        WCut        ...    1.0000e-14
Grids for H and He will be reduced by one unit

# of grid points (after initial pruning)     ...   6676 (   0.0 sec)
# of grid points (after weights+screening)   ...   6540 (   0.0 sec)
nearest neighbour list constructed           ...    0.0 sec
Grid point re-assignment to atoms done       ...    0.0 sec
Grid point division into batches done        ...    0.0 sec
Reduced shell lists constructed in    0.0 sec

Total number of grid points                  ...     6540
Total number of batches                      ...      104
Average number of points per batch           ...       62
Average number of grid points per atom       ...     1308
Average number of shells per batch           ...    18.63 (84.68%)
Average number of basis functions per batch  ...    39.62 (86.13%)
Average number of large shells per batch     ...    16.81 (90.24%)
Average number of large basis fcns per batch ...    35.38 (89.30%)
Maximum spatial batch extension              ...  18.23, 19.49, 22.48 au
Average spatial batch extension              ...   4.43,  4.54,  5.31 au

Time for grid setup =    0.043 sec

--------------
SCF ITERATIONS
--------------
ITER       Energy         Delta-E        Max-DP      RMS-DP      [F,P]     Damp
               ***  Starting incremental Fock matrix formation  ***
  0   -189.3957349125   0.000000000000 0.00921738  0.00085603  0.0249096 0.7000
  1   -189.3974703139  -0.001735401402 0.00986080  0.00086403  0.0194661 0.7000
                               ***Turning on DIIS***
  2   -189.3989613033  -0.001490989367 0.02859545  0.00245250  0.0142927 0.0000
  3   -189.4029962584  -0.004034955099 0.00667675  0.00054040  0.0052392 0.0000
                      *** Initiating the SOSCF procedure ***
                           *** Shutting down DIIS ***
                      *** Re-Reading the Fockian *** 
                      *** Removing any level shift *** 
ITER      Energy       Delta-E        Grad      Rot      Max-DP    RMS-DP
  4   -189.40318520  -0.0001889442  0.002792  0.002792  0.004068  0.000303
               *** Restarting incremental Fock matrix formation ***
  5   -189.40323694  -0.0000517328  0.001300  0.004990  0.004574  0.000320
  6   -189.40325550  -0.0000185696  0.000883  0.004759  0.004487  0.000305
  7   -189.40324761   0.0000078983  0.001339  0.003221  0.002990  0.000204
  8   -189.40326040  -0.0000127967  0.000050  0.000096  0.000214  0.000011
  9   -189.40326039   0.0000000172  0.000088  0.000066  0.000110  0.000006
 10   -189.40326043  -0.0000000395  0.000016  0.000022  0.000037  0.000003
 11   -189.40326043  -0.0000000003  0.000012  0.000012  0.000022  0.000002
                  ***Gradient check signals convergence***
              ***Rediagonalizing the Fockian in SOSCF/NRSCF***

               *****************************************************
               *                     SUCCESS                       *
               *           SCF CONVERGED AFTER  12 CYCLES          *
               *****************************************************

Setting up the final grid:

General Integration Accuracy     IntAcc      ...  4.670
Radial Grid Type                 RadialGrid  ... Gauss-Chebyshev
Angular Grid (max. acc.)         AngularGrid ... Lebedev-302
Angular grid pruning method      GridPruning ... 3 (G Style)
Weight generation scheme         WeightScheme... Becke
Basis function cutoff            BFCut       ...    1.0000e-11
Integration weight cutoff        WCut        ...    1.0000e-14
Grids for H and He will be reduced by one unit

# of grid points (after initial pruning)     ...  25424 (   0.0 sec)
# of grid points (after weights+screening)   ...  24779 (   0.0 sec)
nearest neighbour list constructed           ...    0.0 sec
Grid point re-assignment to atoms done       ...    0.0 sec
Grid point division into batches done        ...    0.1 sec
Reduced shell lists constructed in    0.1 sec

Total number of grid points                  ...    24779
Total number of batches                      ...      390
Average number of points per batch           ...       63
Average number of grid points per atom       ...     4956
Average number of shells per batch           ...    17.09 (77.67%)
Average number of basis functions per batch  ...    36.32 (78.96%)
Average number of large shells per batch     ...    15.05 (88.07%)
Average number of large basis fcns per batch ...    31.49 (86.71%)
Maximum spatial batch extension              ...  17.32, 16.97, 18.19 au
Average spatial batch extension              ...   2.98,  3.14,  3.47 au

Final grid set up in    0.2 sec
Final integration                            ... done (   0.1 sec)
Change in XC energy                          ...    -0.000261727
Integrated number of electrons               ...    24.000021481
Previous integrated no of electrons          ...    23.999453686
Total Energy       :         -189.40352215 Eh           -5153.93186 eV
  Last Energy change         ...   -1.6918e-09  Tolerance :   1.0000e-08
  Last MAX-Density change    ...    3.8452e-06  Tolerance :   1.0000e-07
             **** THE GBW FILE WAS UPDATED (input.gbw) ****
             **** DENSITY FILE WAS UPDATED (input.scfp.tmp) ****
             **** ENERGY FILE WAS UPDATED (input.en.tmp) ****
Total SCF time: 0 days 0 hours 0 min 3 sec 

-------------------------   --------------------
FINAL SINGLE POINT ENERGY      -189.403522154584
-------------------------   --------------------

------------------------------------------------------------------------------
                         ORCA SCF GRADIENT CALCULATION
------------------------------------------------------------------------------

Gradient of the Kohn-Sham DFT energy:
Kohn-Sham wavefunction type      ... RKS
Hartree-Fock exchange scaling    ...    0.200
Number of operators              ...    1
Number of atoms                  ...    5
Basis set dimensions             ...   46
Integral neglect threshold       ... 2.5e-11
Integral primitive cutoff        ... 2.5e-12

Nuclear repulsion gradient       ... done
One Electron Gradient            ... done
Pre-screening matrix             ... done
Starting the two electron gradient:
Two electron gradient done
Exchange-correlation gradient    ... done

------------------
CARTESIAN GRADIENT
------------------

   1   C   :    0.015158990   -0.013621539   -0.001105777
   2   O   :   -0.006155583   -0.007926178    0.004968001
   3   O   :   -0.001843034    0.005030038   -0.000475920
   4   H   :    0.005497796    0.004563488    0.004973185
   5   H   :   -0.012658170    0.011954191   -0.008359489

Difference to translation invariance:
           :   -0.0000000000   -0.0000000000   -0.0000000000

Norm of the cartesian gradient     ...    0.0319324584
RMS gradient                       ...    0.0082449253
MAX gradient                       ...    0.0151589905

-------
TIMINGS
-------

Total SCF gradient time            ...        0.680 sec

One electron gradient       ....       0.005 sec  (  0.7%)
Prescreening matrices       ....       0.015 sec  (  2.1%)
Two electron gradient       ....       0.196 sec  ( 28.8%)
XC gradient                 ....       0.324 sec  ( 47.6%)
------------------------------------------------------------------------------
                         ORCA GEOMETRY RELAXATION STEP
------------------------------------------------------------------------------

Reading the OPT-File                    .... done
Getting information on internals        .... done
Copying old internal coords+grads       .... done
Making the new internal coordinates     .... (new redundants).... done
Validating the new internal coordinates .... (new redundants).... done
Calculating the B-matrix                .... done
Calculating the G,G- and P matrices     .... done
Transforming gradient to internals      .... done
Projecting the internal gradient        .... done
Number of atoms                         ....   5
Number of internal coordinates          ....   9
Current Energy                          ....  -189.403522155 Eh
Current gradient norm                   ....     0.031932458 Eh/bohr
Maximum allowed component of the step   ....  0.300
Current trust radius                    ....  0.300
Updating the Hessian (Bofill)          .... Diagonalizing the Hessian               .... done
Dimension of the hessian                ....   9
Lowest eigenvalues of the Hessian:
 -0.213079616  0.058600254  0.079786041  0.107261331  0.168448473
Hessian has   1 negative eigenvalues
Taking P-RFO step
Searching for lambda that maximizes along the lowest mode
TS mode is mode number   0 with eigenvalue  -0.21307962 and components:
   1.    0.15956558
   2.    0.02071079
   3.   -0.67001085
   4.    0.36059508
   5.   -0.28686423
   6.   -0.11296897
   7.   -0.44873708
   8.    0.12613017
   9.   -0.28781882

Lambda that maximizes along the TS mode:       0.00259623
Searching for lambda that minimizes along all other modes
In cycle   1: lambdaN =  -0.00268311   step =   0.00268311
In cycle   2: lambdaN =  -0.00268692   step =   0.00000381
In cycle   3: lambdaN =  -0.00268692   step =   0.00000000
[...]
  38   0.0000       2.607312        70.9486 
  39   0.0000       2.670464        72.6670 
  40   0.0000       2.831778        77.0566 
  41   0.0000       3.111721        84.6742 
  42   0.0000       3.206350        87.2492 
  43   0.0000       3.338381        90.8420 
  44   0.0000       3.505700        95.3949 
  45   0.0000       3.729528       101.4856 

                    ********************************
                    * MULLIKEN POPULATION ANALYSIS *
                    ********************************

-----------------------
MULLIKEN ATOMIC CHARGES
-----------------------
   0 C :    0.169926
   1 O :   -0.288643
   2 O :   -0.093860
   3 H :   -0.100126
   4 H :    0.312702
Sum of atomic charges:   -0.0000000

--------------------------------
MULLIKEN REDUCED ORBITAL CHARGES
--------------------------------
  0 C s       :     3.126298  s :     3.126298
      pz      :     0.850975  p :     2.546805
      px      :     0.867175
      py      :     0.828654
      dz2     :     0.008082  d :     0.156971
      dxz     :     0.040865
      dyz     :     0.007992
      dx2y2   :     0.055122
      dxy     :     0.044910
  1 O s       :     3.813203  s :     3.813203
      pz      :     1.605597  p :     4.456934
      px      :     1.244907
      py      :     1.606430
      dz2     :     0.002186  d :     0.018506
      dxz     :     0.005055
      dyz     :     0.000234
      dx2y2   :     0.006926
      dxy     :     0.004104
  2 O s       :     3.727364  s :     3.727364
      pz      :     1.484069  p :     4.344526
      px      :     1.418465
      py      :     1.441992
      dz2     :     0.002329  d :     0.021971
      dxz     :     0.004407
      dyz     :     0.002222
      dx2y2   :     0.006131
      dxy     :     0.006883
  3 H s       :     1.100126  s :     1.100126
  4 H s       :     0.687298  s :     0.687298


                     *******************************
                     * LOEWDIN POPULATION ANALYSIS *
                     *******************************

----------------------
LOEWDIN ATOMIC CHARGES
----------------------
   0 C :    0.045597
   1 O :   -0.254184
   2 O :   -0.054530
   3 H :   -0.046946
   4 H :    0.310063

-------------------------------
LOEWDIN REDUCED ORBITAL CHARGES
-------------------------------
  0 C s       :     2.873308  s :     2.873308
      pz      :     0.844433  p :     2.741160
      px      :     1.029406
      py      :     0.867320
      dz2     :     0.020663  d :     0.339936
      dxz     :     0.078986
      dyz     :     0.015166
      dx2y2   :     0.125268
      dxy     :     0.099852
  1 O s       :     3.585875  s :     3.585875
      pz      :     1.589300  p :     4.635427
      px      :     1.417242
      py      :     1.628885
      dz2     :     0.005036  d :     0.032882
      dxz     :     0.006244
      dyz     :     0.000380
      dx2y2   :     0.014909
      dxy     :     0.006313
  2 O s       :     3.533506  s :     3.533506
      pz      :     1.465760  p :     4.484762
      px      :     1.511013
      py      :     1.507990
      dz2     :     0.005095  d :     0.036262
      dxz     :     0.005614
      dyz     :     0.002775
      dx2y2   :     0.008064
      dxy     :     0.014714
  3 H s       :     1.046946  s :     1.046946
  4 H s       :     0.689937  s :     0.689937


                      *****************************
                      * MAYER POPULATION ANALYSIS *
                      *****************************

  NA   - Mulliken gross atomic population
  ZA   - Total nuclear charge
  QA   - Mulliken gross atomic charge
  VA   - Mayer's total valence
  BVA  - Mayer's bonded valence
  FA   - Mayer's free valence

  ATOM       NA         ZA         QA         VA         BVA        FA
  0 C      5.8301     6.0000     0.1699     4.3175     4.3175     0.0000
  1 O      8.2886     8.0000    -0.2886     2.0591     2.0591     0.0000
  2 O      8.0939     8.0000    -0.0939     2.4661     2.4661     0.0000
  3 H      1.1001     1.0000    -0.1001     0.9445     0.9445     0.0000
  4 H      0.6873     1.0000     0.3127     0.8799     0.8799    -0.0000

  Mayer bond orders larger than 0.1
B(  0-C ,  1-O ) :   1.4777 B(  0-C ,  2-O ) :   2.1725 B(  0-C ,  3-H ) :   0.5050 
B(  0-C ,  4-H ) :   0.1623 B(  1-O ,  2-O ) :   0.1397 B(  1-O ,  3-H ) :   0.1202 
B(  1-O ,  4-H ) :   0.3214 B(  2-O ,  4-H ) :   0.1154 B(  3-H ,  4-H ) :   0.2808 


-------
TIMINGS
-------

Total SCF time: 0 days 0 hours 0 min 1 sec 

Total time                  ....       1.597 sec
Sum of individual times     ....       1.380 sec  ( 86.4%)

Fock matrix formation       ....       1.172 sec  ( 73.3%)
  XC integration            ....       0.225 sec  ( 19.2% of F)
    Basis function eval.    ....       0.090 sec  ( 39.8% of XC)
    Density eval.           ....       0.036 sec  ( 15.8% of XC)
    XC-Functional eval.     ....       0.040 sec  ( 17.7% of XC)
    XC-Potential eval.      ....       0.039 sec  ( 17.5% of XC)
Diagonalization             ....       0.000 sec  (  0.0%)
Density matrix formation    ....       0.000 sec  (  0.0%)
Population analysis         ....       0.001 sec  (  0.1%)
Initial guess               ....       0.001 sec  (  0.1%)
Orbital Transformation      ....       0.000 sec  (  0.0%)
Orbital Orthonormalization  ....       0.000 sec  (  0.0%)
DIIS solution               ....       0.000 sec  (  0.0%)
SOSCF solution              ....       0.001 sec  (  0.1%)
Grid generation             ....       0.205 sec  ( 12.8%)

-------------------------   --------------------
FINAL SINGLE POINT ENERGY      -189.403314577124
-------------------------   --------------------

                                *** OPTIMIZATION RUN DONE ***

                            ***************************************
                            *     ORCA property calculations      *
                            ***************************************

                                    ---------------------
                                    Active property flags
                                    ---------------------
   (+) Dipole Moment


------------------------------------------------------------------------------
                       ORCA ELECTRIC PROPERTIES CALCULATION
------------------------------------------------------------------------------

Dipole Moment Calculation                       ... on
Quadrupole Moment Calculation                   ... off
Polarizability Calculation                      ... off
GBWName                                         ... input.gbw
Electron density file                           ... input.scfp.tmp
The origin for moment calculation is the CENTER OF MASS  = ( 0.090093,  1.065921 -0.197429)

-------------
DIPOLE MOMENT
-------------
                                X             Y             Z
Electronic contribution:      0.17268       2.14212      -0.39467
Nuclear contribution   :     -0.26837      -2.77982       0.51264
                        -----------------------------------------
Total Dipole Moment    :     -0.09569      -0.63769       0.11797
                        -----------------------------------------
Magnitude (a.u.)       :      0.65554
Magnitude (Debye)      :      1.66624



--------------------
Rotational spectrum 
--------------------
 
Rotational constants in cm-1:     3.221520     0.379628     0.339608 
Rotational constants in MHz : 96578.741870 11380.946875 10181.185202 

 Dipole components along the rotational axes: 
x,y,z [a.u.] :    -0.308626    -0.578334     0.002398 
x,y,z [Debye]:    -0.784464    -1.470009     0.006095 

 

----------------------------------------------------------------------------
                           ORCA NUMERICAL FREQUENCIES
----------------------------------------------------------------------------

Number of atoms                ... 5
Central differences            ... used
Number of displacements        ... 30
Numerical increment            ... 0.005 bohr
IR-spectrum generation         ... on
Raman-spectrum generation      ... off
Surface Crossing Hessian       ... off

The output will be reduced. Please look at the following files:
SCF program output             ... >input.lastscf
Integral program output        ... >input.lastint
Gradient program output        ... >input.lastgrad
Dipole moment program output   ... >input.lastmom
AutoCI program output          ... >input.lastautoci


         <<< Energy and Gradient at the input geometry >>>

        <<< Energy and Gradient at displaced geometries >>>
             <<<Displacing   1/coordinate 1 (+)>>>
             <<<Displacing   1/coordinate 1 (-)>>>
             <<<Displacing   1/coordinate 2 (+)>>>
             <<<Displacing   1/coordinate 2 (-)>>>
             <<<Displacing   1/coordinate 3 (+)>>>
             <<<Displacing   1/coordinate 3 (-)>>>
             <<<Displacing   2/coordinate 1 (+)>>>
             <<<Displacing   2/coordinate 1 (-)>>>
             <<<Displacing   2/coordinate 2 (+)>>>
             <<<Displacing   2/coordinate 2 (-)>>>
             <<<Displacing   2/coordinate 3 (+)>>>
             <<<Displacing   2/coordinate 3 (-)>>>
             <<<Displacing   3/coordinate 1 (+)>>>
             <<<Displacing   3/coordinate 1 (-)>>>
             <<<Displacing   3/coordinate 2 (+)>>>
             <<<Displacing   3/coordinate 2 (-)>>>
             <<<Displacing   3/coordinate 3 (+)>>>
             <<<Displacing   3/coordinate 3 (-)>>>
             <<<Displacing   4/coordinate 1 (+)>>>
             <<<Displacing   4/coordinate 1 (-)>>>
             <<<Displacing   4/coordinate 2 (+)>>>
             <<<Displacing   4/coordinate 2 (-)>>>
             <<<Displacing   4/coordinate 3 (+)>>>
             <<<Displacing   4/coordinate 3 (-)>>>
             <<<Displacing   5/coordinate 1 (+)>>>
             <<<Displacing   5/coordinate 1 (-)>>>
             <<<Displacing   5/coordinate 2 (+)>>>
             <<<Displacing   5/coordinate 2 (-)>>>
             <<<Displacing   5/coordinate 3 (+)>>>
             <<<Displacing   5/coordinate 3 (-)>>>

-----------------------
VIBRATIONAL FREQUENCIES
-----------------------

Scaling factor for frequencies =  1.000000000 (already applied!)

   0:         0.00 cm**-1
   1:         0.00 cm**-1
   2:         0.00 cm**-1
   3:         0.00 cm**-1
   4:         0.00 cm**-1
   5:         0.00 cm**-1
   6:     -2280.36 cm**-1 ***imaginary mode***
   7:       572.43 cm**-1
   8:       734.74 cm**-1
   9:       853.81 cm**-1
  10:      1083.29 cm**-1
  11:      1359.60 cm**-1
  12:      1667.67 cm**-1
  13:      2025.60 cm**-1
  14:      2155.13 cm**-1


------------
NORMAL MODES
------------

These modes are the cartesian displacements weighted by the diagonal matrix
M(i,i)=1/sqrt(m[i]) where m[i] is the mass of the displaced atom
Thus, these vectors are normalized but *not* orthogonal

                  0          1          2          3          4          5    
      0       0.000000   0.000000   0.000000   0.000000   0.000000   0.000000
      1       0.000000   0.000000   0.000000   0.000000   0.000000   0.000000
      2       0.000000   0.000000   0.000000   0.000000   0.000000   0.000000
      3       0.000000   0.000000   0.000000   0.000000   0.000000   0.000000
      4       0.000000   0.000000   0.000000   0.000000   0.000000   0.000000
      5       0.000000   0.000000   0.000000   0.000000   0.000000   0.000000
      6       0.000000   0.000000   0.000000   0.000000   0.000000   0.000000
      7       0.000000   0.000000   0.000000   0.000000   0.000000   0.000000
      8       0.000000   0.000000   0.000000   0.000000   0.000000   0.000000
      9       0.000000   0.000000   0.000000   0.000000   0.000000   0.000000
     10       0.000000   0.000000   0.000000   0.000000   0.000000   0.000000
     11       0.000000   0.000000   0.000000   0.000000   0.000000   0.000000
     12       0.000000   0.000000   0.000000   0.000000   0.000000   0.000000
     13       0.000000   0.000000   0.000000   0.000000   0.000000   0.000000
     14       0.000000   0.000000   0.000000   0.000000   0.000000   0.000000
                  6          7          8          9         10         11    
      0       0.076327  -0.022230  -0.124216   0.028096   0.005921  -0.213613
      1      -0.073416   0.067653   0.569186   0.039776  -0.021372   0.293396
      2       0.019045   0.327348  -0.126864  -0.010830  -0.107830  -0.070263
      3      -0.017891   0.004197  -0.284516   0.056572  -0.003023   0.416311
      4      -0.028588  -0.014049  -0.346053  -0.032794   0.011355  -0.041442
      5       0.004285  -0.059303   0.049952   0.011444   0.052560   0.034593
      6      -0.003535   0.009644   0.397851  -0.011683  -0.002583  -0.253801
      7       0.026320  -0.023838  -0.118878   0.046866   0.003192  -0.238271
      8      -0.005291  -0.123175   0.052134  -0.008103   0.023686   0.029368
      9       0.147830  -0.001198  -0.055549  -0.557281  -0.031990   0.209713
     10       0.386100  -0.032503   0.232102  -0.653412   0.147342   0.489782
     11      -0.062954  -0.095306  -0.034676   0.102436   0.723300  -0.090238
     12      -0.717243   0.046395  -0.263185  -0.489977   0.050418  -0.243738
     13       0.524693  -0.172287   0.365067  -0.043905  -0.123565   0.453828
     14      -0.147994  -0.908972  -0.073962  -0.026421  -0.648610  -0.087720
                  12         13         14    
      0      -0.032279  -0.005838  -0.596882
      1      -0.013272   0.036733  -0.255323
      2       0.000413  -0.007524   0.009856
      3       0.031011  -0.011739   0.158544
      4      -0.007220   0.029801  -0.008785
      5       0.003496  -0.006589   0.011937
      6       0.032868  -0.001870   0.279343
      7       0.023399  -0.011333   0.189303
      8      -0.002352   0.002187  -0.017955
      9      -0.344922   0.717093   0.306924
     10       0.568498  -0.274240  -0.294303
     11      -0.129398   0.095840   0.074432
     12      -0.284336  -0.431519  -0.144825
     13      -0.667134  -0.456591   0.471469
     14       0.106314   0.063673  -0.096360


-----------
IR SPECTRUM  
-----------

 Mode    freq (cm**-1)   T**2         TX         TY         TZ
-------------------------------------------------------------------
   7:       572.43    1.465361  ( -0.083020   0.323477  -1.163543)
   8:       734.74  165.945687  ( -3.428159  12.152030  -2.553740)
   9:       853.81  337.042777  ( -5.155288  17.213411  -3.763544)
  10:      1083.29   79.637779  (  0.670435  -1.993217  -8.672680)
  11:      1359.60  199.128693  ( -9.346781  10.279310  -2.470254)
  12:      1667.67  155.743601  (  0.242145 -12.276128   2.231959)
  13:      2025.60  130.509698  ( -9.222847   6.479077  -1.862887)
  14:      2155.13  533.505965  (-21.587744  -8.212092   0.191932)

The first frequency considered to be a vibration is 7
The total number of vibrations considered is 8


--------------------------
THERMOCHEMISTRY AT 298.15K
--------------------------

Temperature         ... 298.15 K
Pressure            ... 1.00 atm
Total Mass          ... 46.03 AMU

Throughout the following assumptions are being made:
  (1) The electronic state is orbitally nondegenerate
  (2) There are no thermally accessible electronically excited states
  (3) Hindered rotations indicated by low frequency modes are not
      treated as such but are treated as vibrations and this may
      cause some error
  (4) All equations used are the standard statistical mechanics
      equations for an ideal gas
  (5) All vibrations are strictly harmonic

freq.     572.43  E(vib)   ...       0.11 
freq.     734.74  E(vib)   ...       0.06 
freq.     853.81  E(vib)   ...       0.04 
freq.    1083.29  E(vib)   ...       0.02 
freq.    1359.60  E(vib)   ...       0.01 
freq.    1667.67  E(vib)   ...       0.00 
freq.    2025.60  E(vib)   ...       0.00 
freq.    2155.13  E(vib)   ...       0.00 

------------
INNER ENERGY
------------

The inner energy is: U= E(el) + E(ZPE) + E(vib) + E(rot) + E(trans)
    E(el)   - is the total energy from the electronic structure calculation
              = E(kin-el) + E(nuc-el) + E(el-el) + E(nuc-nuc)
    E(ZPE)  - the the zero temperature vibrational energy from the frequency calculation
    E(vib)  - the the finite temperature correction to E(ZPE) due to population
              of excited vibrational states
    E(rot)  - is the rotational thermal energy
    E(trans)- is the translational thermal energy

Summary of contributions to the inner energy U:
Electronic energy                ...   -189.40331458 Eh
Zero point energy                ...      0.02381203 Eh      14.94 kcal/mol
Thermal vibrational correction   ...      0.00037816 Eh       0.24 kcal/mol
Thermal rotational correction    ...      0.00141627 Eh       0.89 kcal/mol
Thermal translational correction ...      0.00141627 Eh       0.89 kcal/mol
-----------------------------------------------------------------------
Total thermal energy                   -189.37629185 Eh


Summary of corrections to the electronic energy:
(perhaps to be used in another calculation)
Total thermal correction                  0.00321070 Eh       2.01 kcal/mol
Non-thermal (ZPE) correction              0.02381203 Eh      14.94 kcal/mol
-----------------------------------------------------------------------
Total correction                          0.02702273 Eh      16.96 kcal/mol


--------
ENTHALPY
--------

The enthalpy is H = U + kB*T
                kB is Boltzmann's constant
Total free energy                 ...   -189.37629185 Eh 
Thermal Enthalpy correction       ...      0.00094421 Eh       0.59 kcal/mol
-----------------------------------------------------------------------
Total Enthalpy                    ...   -189.37534764 Eh


Note: Rotational entropy computed according to Herzberg 
Infrared and Raman Spectra, Chapter V,1, Van Nostrand Reinhold, 1945 
Point Group:  C1, Symmetry Number:   1  
Rotational constants in cm-1:     3.221520     0.379628     0.339608 

Vibrational entropy computed according to the QRRHO of S. Grimme
Chem.Eur.J. 2012 18 9955


-------
ENTROPY
-------

The entropy contributions are T*S = T*(S(el)+S(vib)+S(rot)+S(trans))
     S(el)   - electronic entropy
     S(vib)  - vibrational entropy
     S(rot)  - rotational entropy
     S(trans)- translational entropy
The entropies will be listed as mutliplied by the temperature to get
units of energy

Electronic entropy                ...      0.00000000 Eh      0.00 kcal/mol
Vibrational entropy               ...      0.00049009 Eh      0.31 kcal/mol
Rotational entropy                ...      0.00992562 Eh      6.23 kcal/mol
Translational entropy             ...      0.01777224 Eh     11.15 kcal/mol
-----------------------------------------------------------------------
Final entropy term                ...      0.02818795 Eh     17.69 kcal/mol


-------------------
GIBBS FREE ENTHALPY
-------------------

The Gibbs free enthalpy is G = H - T*S

Total enthalpy                    ...   -189.37534764 Eh 
Total entropy correction          ...     -0.02818795 Eh    -17.69 kcal/mol
-----------------------------------------------------------------------
Final Gibbs free enthalpy         ...   -189.40353559 Eh

For completeness - the Gibbs free enthalpy minus the electronic energy
G-E(el)                           ...     -0.00022101 Eh     -0.14 kcal/mol


Total Time for Numerical Frequencies  :        99.700 sec

Timings for individual modules:

Sum of individual times         ...       53.102 sec (=   0.885 min)
GTO integral calculation        ...        4.945 sec (=   0.082 min)   9.3 %
SCF iterations                  ...       37.549 sec (=   0.626 min)  70.7 %
SCF Gradient evaluation         ...        9.971 sec (=   0.166 min)  18.8 %
Geometry relaxation             ...        0.637 sec (=   0.011 min)   1.2 %
                             ****ORCA TERMINATED NORMALLY****
TOTAL RUN TIME: 0 days 0 hours 2 minutes 31 seconds 388 msec
