
    -----------------------------------------------------------------------
          Psi4: An Open-Source Ab Initio Electronic Structure Package
                               Psi4 1.2.1 release

                         Git: Rev {HEAD} 406f4de 


    R. M. Parrish, L. A. Burns, D. G. A. Smith, A. C. Simmonett,
    A. E. DePrince III, E. G. Hohenstein, U. Bozkaya, A. Yu. Sokolov,
    R. Di Remigio, R. M. Richard, J. F. Gonthier, A. M. James,
    H. R. McAlexander, A. Kumar, M. Saitow, X. Wang, B. P. Pritchard,
    P. Verma, H. F. Schaefer III, K. Patkowski, R. A. King, E. F. Valeev,
    F. A. Evangelista, J. M. Turney, T. D. Crawford, and C. D. Sherrill,
    J. Chem. Theory Comput. 13(7) pp 3185--3197 (2017).
    (doi: 10.1021/acs.jctc.7b00174)


                         Additional Contributions by
    P. Kraus, H. Kruse, M. H. Lechner, M. C. Schieber, and R. A. Shaw

    -----------------------------------------------------------------------


    Psi4 started on: Thursday, 17 January 2019 04:42PM

    Process ID: 16443
    Host:       localhost.localdomain
    PSIDATADIR: /root/psi4conda/share/psi4
    Memory:     500.0 MiB
    Threads:    1
    
  ==> Input File <==

--------------------------------------------------------------------------
molecule{
0 1
    C            0.040730912894    -0.059531542501    -1.173581810046
    O           -1.015897442692    -0.278645628566    -1.886194723693
    CL           1.423690007801     0.380975008283     1.119493608441
    CL          -1.487966445222     0.325334852871     1.062528577890
    H            0.777173124071     3.176101854822    -2.228608122285
    C            1.086340338636     2.157591160917    -2.004506247428
    H            1.317297196309     1.616632953895    -2.925181037624
    H            1.946931589372     2.167092399907    -1.338351605224
    O            0.001885107541     1.521844810258    -1.314974908105
    H           -0.860445825616     1.094766693436    -1.911138440706
    C           -0.019184569429    -0.337087737562     0.350474885726
    CL           0.026415216406    -2.100823252896     0.539121929055
    H            1.034422442460    -0.366745539619    -1.540405832948
 
}

set{
   basis 6-311++G(d,p)
   freeze_core True
   normal_modes_write True
}


set_num_threads(16)
frequencies('m06-2x')
--------------------------------------------------------------------------
  Threads set to 16 by Python driver.
gradient() will perform analytic gradient computation.

*** tstart() called on localhost.localdomain
*** at Thu Jan 17 16:42:03 2019

   => Loading Basis Set <=

    Name: 6-311++G(D,P)
    Role: ORBITAL
    Keyword: BASIS
    atoms 1, 6, 11       entry C          line   119 file /root/psi4conda/share/psi4/basis/6-311ppg_d_p_.gbs 
    atoms 2, 9           entry O          line   161 file /root/psi4conda/share/psi4/basis/6-311ppg_d_p_.gbs 
    atoms 3-4, 12        entry CL         line   458 file /root/psi4conda/share/psi4/basis/6-311ppg_d_p_.gbs 
    atoms 5, 7-8, 10, 13 entry H          line    42 file /root/psi4conda/share/psi4/basis/6-311ppg_d_p_.gbs 


         ---------------------------------------------------------
                                   SCF
            by Justin Turney, Rob Parrish, Andy Simmonett
                             and Daniel Smith
                              RKS Reference
                       16 Threads,    500 MiB Core
         ---------------------------------------------------------

  ==> Geometry <==

    Molecular point group: c1
    Full point group: C1

    Geometry (in Angstrom), charge = 0, multiplicity = 1:

       Center              X                  Y                   Z               Mass       
    ------------   -----------------  -----------------  -----------------  -----------------
         C            0.040730912894    -0.059531542501    -1.173581810046    12.000000000000
         O           -1.015897442692    -0.278645628566    -1.886194723693    15.994914619560
         CL           1.423690007801     0.380975008283     1.119493608441    34.968852682000
         CL          -1.487966445222     0.325334852871     1.062528577890    34.968852682000
         H            0.777173124071     3.176101854822    -2.228608122285     1.007825032070
         C            1.086340338636     2.157591160917    -2.004506247428    12.000000000000
         H            1.317297196309     1.616632953895    -2.925181037624     1.007825032070
         H            1.946931589372     2.167092399907    -1.338351605224     1.007825032070
         O            0.001885107541     1.521844810258    -1.314974908105    15.994914619560
         H           -0.860445825616     1.094766693436    -1.911138440706     1.007825032070
         C           -0.019184569429    -0.337087737562     0.350474885726    12.000000000000
         CL           0.026415216406    -2.100823252896     0.539121929055    34.968852682000
         H            1.034422442460    -0.366745539619    -1.540405832948     1.007825032070

  Running in c1 symmetry.

  Rotational constants: A =      0.04841  B =      0.03180  C =      0.02895 [cm^-1]
  Rotational constants: A =   1451.30890  B =    953.36295  C =    867.88110 [MHz]
  Nuclear repulsion =  679.463577705951138

  Charge       = 0
  Multiplicity = 1
  Electrons    = 90
  Nalpha       = 45
  Nbeta        = 45

  ==> Algorithm <==

  SCF Algorithm Type is DF.
  DIIS enabled.
  MOM disabled.
  Fractional occupation disabled.
  Guess Type is SAD.
  Energy threshold   = 1.00e-08
  Density threshold  = 1.00e-08
  Integral threshold = 0.00e+00

  ==> Primary Basis <==

  Basis Set: 6-311++G(D,P)
    Blend: 6-311++G(D,P)
    Number of shells: 117
    Number of basis function: 235
    Number of Cartesian functions: 243
    Spherical Harmonics?: true
    Max angular momentum: 2

  ==> DFT Potential <==

   => Composite Functional: M06-2X <= 

    Hybrid M06-2X Meta-GGA XC Functional

    Y. Zhao and D. G. Truhlar,  Theor. Chem. Acc., 120, 215, 2008


    Deriv               =              1
    GGA                 =           TRUE
    Meta                =           TRUE

    Exchange Hybrid     =           TRUE
    MP2 Hybrid          =          FALSE

   => Exchange Functionals <=

    1.0000   XC_HYB_MGGA_X_M06_2X

   => Exact (HF) Exchange <=

    0.5400               HF 

   => Correlation Functionals <=

    1.0000   XC_MGGA_C_M06_2X

   => Molecular Quadrature <=

    Radial Scheme       =       TREUTLER
    Pruning Scheme      =           FLAT
    Nuclear Scheme      =       TREUTLER

    BS radius alpha     =              1
    Pruning alpha       =              1
    Radial Points       =             75
    Spherical Points    =            302
    Total Points        =         294155
    Total Blocks        =           2257
    Max Points          =            256
    Max Functions       =            207

   => Loading Basis Set <=

    Name: (6-311++G(D,P) AUX)
    Role: JKFIT
    Keyword: DF_BASIS_SCF
    atoms 1, 6, 11       entry C          line   162 file /root/psi4conda/share/psi4/basis/aug-cc-pvtz-jkfit.gbs 
    atoms 2, 9           entry O          line   286 file /root/psi4conda/share/psi4/basis/aug-cc-pvtz-jkfit.gbs 
    atoms 3-4, 12        entry CL         line   816 file /root/psi4conda/share/psi4/basis/aug-cc-pvtz-jkfit.gbs 
    atoms 5, 7-8, 10, 13 entry H          line    70 file /root/psi4conda/share/psi4/basis/aug-cc-pvtz-jkfit.gbs 

  ==> Pre-Iterations <==

   -------------------------------------------------------
    Irrep   Nso     Nmo     Nalpha   Nbeta   Ndocc  Nsocc
   -------------------------------------------------------
     A        235     235       0       0       0       0
   -------------------------------------------------------
    Total     235     235      45      45      45       0
   -------------------------------------------------------

  ==> Integral Setup <==

  ==> DiskDFJK: Density-Fitted J/K Matrices <==

    J tasked:                  Yes
    K tasked:                  Yes
    wK tasked:                  No
    OpenMP threads:             16
    Integrals threads:          16
    Memory (MB):               375
    Algorithm:                Core
    Integral Cache:           NONE
    Schwarz Cutoff:          1E-12
    Fitting Condition:       1E-12

   => Auxiliary Basis Set <=

  Basis Set: (6-311++G(D,P) AUX)
    Blend: AUG-CC-PVTZ-JKFIT
    Number of shells: 346
    Number of basis function: 1188
    Number of Cartesian functions: 1470
    Spherical Harmonics?: true
    Max angular momentum: 4

  Minimum eigenvalue in the overlap matrix is 2.3029709591E-05.
  Using Symmetric Orthogonalization.

  SCF Guess: Superposition of Atomic Densities via on-the-fly atomic UHF.

  ==> Iterations <==

                           Total Energy        Delta E     RMS |[F,P]|

   @DF-RKS iter   0: -1650.01104821296576   -1.65001e+03   7.37994e-02 
   @DF-RKS iter   1: -1648.02376822442375    1.98728e+00   1.16046e-02 
   @DF-RKS iter   2: -1647.76861407687352    2.55154e-01   1.87010e-02 DIIS
   @DF-RKS iter   3: -1648.23997346888996   -4.71359e-01   1.45917e-03 DIIS
   @DF-RKS iter   4: -1648.24278694289114   -2.81347e-03   7.44608e-04 DIIS
   @DF-RKS iter   5: -1648.24342697414909   -6.40031e-04   3.25834e-04 DIIS
   @DF-RKS iter   6: -1648.24359841852333   -1.71444e-04   5.84823e-05 DIIS
   @DF-RKS iter   7: -1648.24360662310505   -8.20458e-06   1.86880e-05 DIIS
   @DF-RKS iter   8: -1648.24360744570686   -8.22602e-07   6.89612e-06 DIIS
   @DF-RKS iter   9: -1648.24360756524607   -1.19539e-07   2.31354e-06 DIIS
   @DF-RKS iter  10: -1648.24360757661566   -1.13696e-08   8.11166e-07 DIIS
   @DF-RKS iter  11: -1648.24360757812155   -1.50590e-09   1.60321e-07 DIIS
   @DF-RKS iter  12: -1648.24360757821819   -9.66338e-11   5.40302e-08 DIIS
   @DF-RKS iter  13: -1648.24360757822956   -1.13687e-11   2.01477e-08 DIIS
   @DF-RKS iter  14: -1648.24360757823479   -5.22959e-12   8.61193e-09 DIIS

  ==> Post-Iterations <==

    Orbital Energies [Eh]
    ---------------------

    Doubly Occupied:                                                      

       1A   -102.701296     2A   -102.697324     3A   -102.694245  
       4A    -19.717163     5A    -19.597763     6A    -10.733236  
       7A    -10.691089     8A    -10.629762     9A     -9.844051  
      10A     -9.839923    11A     -9.836903    12A     -7.569278  
      13A     -7.565316    14A     -7.562379    15A     -7.562135  
      16A     -7.561989    17A     -7.557880    18A     -7.557726  
      19A     -7.554812    20A     -7.554715    21A     -1.260602  
      22A     -1.131260    23A     -1.055827    24A     -0.943791  
      25A     -0.941790    26A     -0.847592    27A     -0.805542  
      28A     -0.687419    29A     -0.658479    30A     -0.613979  
      31A     -0.594270    32A     -0.560116    33A     -0.541192  
      34A     -0.538927    35A     -0.504852    36A     -0.475173  
      37A     -0.473314    38A     -0.425169    39A     -0.422331  
      40A     -0.408626    41A     -0.391651    42A     -0.388597  
      43A     -0.373780    44A     -0.364703    45A     -0.341826  

    Virtual:                                                              

      46A     -0.012982    47A      0.000839    48A      0.010161  
      49A      0.014076    50A      0.019427    51A      0.027502  
      52A      0.037966    53A      0.046323    54A      0.052492  
      55A      0.057611    56A      0.065626    57A      0.071710  
      58A      0.077933    59A      0.089702    60A      0.100003  
      61A      0.102285    62A      0.107845    63A      0.115054  
      64A      0.117980    65A      0.124891    66A      0.128819  
      67A      0.131501    68A      0.135596    69A      0.141976  
      70A      0.144921    71A      0.148101    72A      0.154274  
      73A      0.167903    74A      0.176149    75A      0.184503  
      76A      0.189921    77A      0.203068    78A      0.212419  
      79A      0.222252    80A      0.235159    81A      0.236027  
      82A      0.255268    83A      0.270438    84A      0.276055  
      85A      0.287103    86A      0.302160    87A      0.314257  
      88A      0.331135    89A      0.337457    90A      0.343213  
      91A      0.351965    92A      0.379676    93A      0.407253  
      94A      0.427512    95A      0.437132    96A      0.441290  
      97A      0.442373    98A      0.469925    99A      0.484735  
     100A      0.487535   101A      0.492440   102A      0.499164  
     103A      0.500346   104A      0.514975   105A      0.520111  
     106A      0.529419   107A      0.541436   108A      0.549192  
     109A      0.585920   110A      0.592155   111A      0.604648  
     112A      0.611671   113A      0.648943   114A      0.673520  
     115A      0.685445   116A      0.705162   117A      0.734324  
     118A      0.843785   119A      0.886186   120A      0.901656  
     121A      0.913656   122A      0.919671   123A      0.926635  
     124A      0.933934   125A      0.950733   126A      0.958515  
     127A      0.975263   128A      0.977276   129A      0.983402  
     130A      1.005035   131A      1.012172   132A      1.041670  
     133A      1.057929   134A      1.063431   135A      1.114512  
     136A      1.155845   137A      1.162855   138A      1.174590  
     139A      1.193698   140A      1.231378   141A      1.247607  
     142A      1.284370   143A      1.306951   144A      1.320894  
     145A      1.347031   146A      1.365382   147A      1.377926  
     148A      1.402720   149A      1.451885   150A      1.504487  
     151A      1.537893   152A      1.557264   153A      1.561935  
     154A      1.590915   155A      1.614940   156A      1.639191  
     157A      1.707677   158A      1.716044   159A      1.721001  
     160A      1.750763   161A      1.773464   162A      1.807295  
     163A      1.854280   164A      1.872538   165A      1.899634  
     166A      1.966298   167A      2.004519   168A      2.051443  
     169A      2.068425   170A      2.150131   171A      2.196696  
     172A      2.287864   173A      2.293217   174A      2.318178  
     175A      2.322561   176A      2.346111   177A      2.351349  
     178A      2.370575   179A      2.449297   180A      2.491326  
     181A      2.504481   182A      2.528281   183A      2.536976  
     184A      2.556297   185A      2.591974   186A      2.599367  
     187A      2.609283   188A      2.738183   189A      2.769174  
     190A      2.794899   191A      2.898639   192A      2.929407  
     193A      2.987115   194A      3.026197   195A      3.076147  
     196A      3.118480   197A      3.134167   198A      3.157641  
     199A      3.241708   200A      3.381210   201A      3.454626  
     202A      3.542870   203A      3.733557   204A      3.789963  
     205A      3.827396   206A      3.854211   207A      3.982198  
     208A      4.043117   209A      4.157637   210A      5.232161  
     211A      5.257933   212A      5.294087   213A      5.335830  
     214A      5.627717   215A      5.789305   216A      9.933077  
     217A      9.940764   218A      9.961591   219A     23.500238  
     220A     23.840892   221A     23.958783   222A     25.951108  
     223A     25.993626   224A     26.007355   225A     26.018819  
     226A     26.096331   227A     26.100564   228A     26.521303  
     229A     26.551692   230A     26.813027   231A     49.966123  
     232A     50.119935   233A    216.033124   234A    216.042922  
     235A    216.074837  

    Final Occupation by Irrep:
              A 
    DOCC [    45 ]

  Energy converged.

  @DF-RKS Final Energy: -1648.24360757823479

   => Energetics <=

    Nuclear Repulsion Energy =            679.4635777059511383
    One-Electron Energy =               -3623.4504514049635873
    Two-Electron Energy =                1352.8369155707591744
    DFT Exchange-Correlation Energy =     -57.0936494499815055
    Empirical Dispersion Energy =           0.0000000000000000
    VV10 Nonlocal Energy =                  0.0000000000000000
    Total Energy =                      -1648.2436075782347871



Properties will be evaluated at   0.000000,   0.000000,   0.000000 [a0]

Properties computed using the SCF density matrix

  Nuclear Dipole Moment: [e a0]
     X:     3.9816      Y:     8.4897      Z:   -11.8283

  Electronic Dipole Moment: [e a0]
     X:    -2.8130      Y:    -7.2424      Z:    11.2142

  Dipole Moment: [e a0]
     X:     1.1686      Y:     1.2472      Z:    -0.6141     Total:     1.8161

  Dipole Moment: [D]
     X:     2.9702      Y:     3.1702      Z:    -1.5609     Total:     4.6161


*** tstop() called on localhost.localdomain at Thu Jan 17 16:42:24 2019
Module time:
	user time   =     288.62 seconds =       4.81 minutes
	system time =       5.72 seconds =       0.10 minutes
	total time  =         21 seconds =       0.35 minutes
Total time:
	user time   =     288.62 seconds =       4.81 minutes
	system time =       5.72 seconds =       0.10 minutes
	total time  =         21 seconds =       0.35 minutes

*** tstart() called on localhost.localdomain
*** at Thu Jan 17 16:42:24 2019


         ------------------------------------------------------------
                                   SCF GRAD                          
                          Rob Parrish, Justin Turney,                
                       Andy Simmonett, and Alex Sokolov              
         ------------------------------------------------------------

  ==> Geometry <==

    Molecular point group: c1
    Full point group: C1

    Geometry (in Angstrom), charge = 0, multiplicity = 1:

       Center              X                  Y                   Z               Mass       
    ------------   -----------------  -----------------  -----------------  -----------------
         C            0.040730912894    -0.059531542501    -1.173581810046    12.000000000000
         O           -1.015897442692    -0.278645628566    -1.886194723693    15.994914619560
         CL           1.423690007801     0.380975008283     1.119493608441    34.968852682000
         CL          -1.487966445222     0.325334852871     1.062528577890    34.968852682000
         H            0.777173124071     3.176101854822    -2.228608122285     1.007825032070
         C            1.086340338636     2.157591160917    -2.004506247428    12.000000000000
         H            1.317297196309     1.616632953895    -2.925181037624     1.007825032070
         H            1.946931589372     2.167092399907    -1.338351605224     1.007825032070
         O            0.001885107541     1.521844810258    -1.314974908105    15.994914619560
         H           -0.860445825616     1.094766693436    -1.911138440706     1.007825032070
         C           -0.019184569429    -0.337087737562     0.350474885726    12.000000000000
         CL           0.026415216406    -2.100823252896     0.539121929055    34.968852682000
         H            1.034422442460    -0.366745539619    -1.540405832948     1.007825032070

  Nuclear repulsion =  679.463577705951138

  ==> Basis Set <==

  Basis Set: 6-311++G(D,P)
    Blend: 6-311++G(D,P)
    Number of shells: 117
    Number of basis function: 235
    Number of Cartesian functions: 243
    Spherical Harmonics?: true
    Max angular momentum: 2

  ==> DFJKGrad: Density-Fitted SCF Gradients <==

    Gradient:                    1
    J tasked:                  Yes
    K tasked:                  Yes
    wK tasked:                  No
    OpenMP threads:             16
    Integrals threads:          16
    Memory (MB):               375
    Schwarz Cutoff:          0E+00
    Fitting Condition:       1E-12

   => Auxiliary Basis Set <=

  Basis Set: (6-311++G(D,P) AUX)
    Blend: AUG-CC-PVTZ-JKFIT
    Number of shells: 346
    Number of basis function: 1188
    Number of Cartesian functions: 1470
    Spherical Harmonics?: true
    Max angular momentum: 4

  ==> DFT Potential <==

   => Composite Functional: M06-2X <= 

    Hybrid M06-2X Meta-GGA XC Functional

    Y. Zhao and D. G. Truhlar,  Theor. Chem. Acc., 120, 215, 2008


    Deriv               =              1
    GGA                 =           TRUE
    Meta                =           TRUE

    Exchange Hybrid     =           TRUE
    MP2 Hybrid          =          FALSE

   => Exchange Functionals <=

    1.0000   XC_HYB_MGGA_X_M06_2X

   => Exact (HF) Exchange <=

    0.5400               HF 

   => Correlation Functionals <=

    1.0000   XC_MGGA_C_M06_2X

   => Molecular Quadrature <=

    Radial Scheme       =       TREUTLER
    Pruning Scheme      =           FLAT
    Nuclear Scheme      =       TREUTLER

    BS radius alpha     =              1
    Pruning alpha       =              1
    Radial Points       =             75
    Spherical Points    =            302
    Total Points        =         294155
    Total Blocks        =           2257
    Max Points          =            256
    Max Functions       =            207


  -Total Gradient:
     Atom            X                  Y                   Z
    ------   -----------------  -----------------  -----------------
       1       -0.000114739678    -0.000138674437    -0.000055209567
       2        0.000110535796     0.000080369947     0.000082495574
       3       -0.000176302410    -0.000074385249    -0.000044632062
       4       -0.000132459335     0.000069315701     0.000094124451
       5        0.000034802293     0.000021907200     0.000032642775
       6        0.000009566826     0.000021105789     0.000000325686
       7        0.000022724813     0.000028534862     0.000024839598
       8        0.000009227247    -0.000007614699     0.000035396602
       9       -0.000022126817     0.000055155723    -0.000031500020
      10        0.000098071687     0.000079863687     0.000038439835
      11        0.000252054271     0.000054791868    -0.000037077576
      12        0.000025547554    -0.000051151336    -0.000001974506
      13        0.000007626401    -0.000008267730     0.000004834375


*** tstop() called on localhost.localdomain at Thu Jan 17 16:42:30 2019
Module time:
	user time   =      87.63 seconds =       1.46 minutes
	system time =       2.07 seconds =       0.03 minutes
	total time  =          6 seconds =       0.10 minutes
Total time:
	user time   =     376.28 seconds =       6.27 minutes
	system time =       7.79 seconds =       0.13 minutes
	total time  =         27 seconds =       0.45 minutes

  Based on options and gradient (rms=1.24E-04), recommend projecting translations and projecting rotations.
hessian() will perform frequency computation by finite difference of analytic gradients.

-------------------------------------------------------------

  Using finite-differences of gradients to determine vibrational frequencies and 
  normal modes.  Resulting frequencies are only valid at stationary points.
	Generating geometries for use with 3-point formula.
	Displacement size will be 5.00e-03.
	Number of atoms is 13.
	Number of irreps is 1.
	Number of SALCS is 33.
	Translations projected? 1. Rotations projected? 1.
	Index of salcs per irrep:
	 1 :  0  1  2  3  4  5  6  7  8  9  10  11  12  13  14  15  16  17  18  19  20  21  22  23  24  25  26  27  28  29  30  31  32 
	Number of SALC's per irrep:
		 Irrep 1: 33
	Number of geometries (including reference) is 67.
	Number of displacements per irrep:
	  Irrep 1: 66

  //>>>>>>>>>>>>>>>>>>>>>>>>>>>>>>>>>>>//
  //    Loading displacement 1 of 67   //
  //<<<<<<<<<<<<<<<<<<<<<<<<<<<<<<<<<<<//
gradient() will perform analytic gradient computation.

*** tstart() called on localhost.localdomain
*** at Thu Jan 17 16:42:30 2019

   => Loading Basis Set <=

    Name: 6-311++G(D,P)
    Role: ORBITAL
    Keyword: BASIS
    atoms 1, 6, 11       entry C          line   119 file /root/psi4conda/share/psi4/basis/6-311ppg_d_p_.gbs 
    atoms 2, 9           entry O          line   161 file /root/psi4conda/share/psi4/basis/6-311ppg_d_p_.gbs 
    atoms 3-4, 12        entry CL         line   458 file /root/psi4conda/share/psi4/basis/6-311ppg_d_p_.gbs 
    atoms 5, 7-8, 10, 13 entry H          line    42 file /root/psi4conda/share/psi4/basis/6-311ppg_d_p_.gbs 


         ---------------------------------------------------------
                                   SCF
            by Justin Turney, Rob Parrish, Andy Simmonett
                             and Daniel Smith
                              RKS Reference
                       16 Threads,    500 MiB Core
         ---------------------------------------------------------

  ==> Geometry <==

    Molecular point group: c1
    Full point group: C1

    Geometry (in Angstrom), charge = 0, multiplicity = 1:

       Center              X                  Y                   Z               Mass       
    ------------   -----------------  -----------------  -----------------  -----------------
         C            0.040009225592    -0.059533656485    -1.173580586332    12.000000000000
         O           -1.015789874390    -0.278656997818    -1.886221617452    15.994914619560
         CL           1.423711448213     0.380987806495     1.119531317243    34.968852682000
         CL          -1.487943054466     0.325326069591     1.062487678244    34.968852682000
         H            0.777264482365     3.176102999425    -2.228593643484     1.007825032070
         C            1.086433146164     2.157595045669    -2.004481314386    12.000000000000
         H            1.317418884130     1.616636647251    -2.925148747328     1.007825032070
         H            1.947006315932     2.167103999198    -1.338303423788     1.007825032070
         O            0.001963958732     1.521842119041    -1.314977987815    15.994914619560
         H           -0.860347707501     1.094756418837    -1.911163956824     1.007825032070
         C           -0.019137043484    -0.337087158005     0.350475060473    12.000000000000
         CL           0.026470643871    -2.100821949107     0.539126964977    34.968852682000
         H            1.034521311074    -0.366741082870    -1.540377110653     1.007825032070

  Running in c1 symmetry.

  Rotational constants: A =      0.04841  B =      0.03180  C =      0.02895 [cm^-1]
  Rotational constants: A =   1451.30239  B =    953.38113  C =    867.87070 [MHz]
  Nuclear repulsion =  679.471625375047438

  Charge       = 0
  Multiplicity = 1
  Electrons    = 90
  Nalpha       = 45
  Nbeta        = 45

  ==> Algorithm <==

  SCF Algorithm Type is DF.
  DIIS enabled.
  MOM disabled.
  Fractional occupation disabled.
  Guess Type is SAD.
  Energy threshold   = 1.00e-08
  Density threshold  = 1.00e-08
  Integral threshold = 0.00e+00

  ==> Primary Basis <==

  Basis Set: 6-311++G(D,P)
    Blend: 6-311++G(D,P)
    Number of shells: 117
    Number of basis function: 235
    Number of Cartesian functions: 243
    Spherical Harmonics?: true
    Max angular momentum: 2

  ==> DFT Potential <==

   => Composite Functional: M06-2X <= 

    Hybrid M06-2X Meta-GGA XC Functional

    Y. Zhao and D. G. Truhlar,  Theor. Chem. Acc., 120, 215, 2008


    Deriv               =              1
    GGA                 =           TRUE
    Meta                =           TRUE

    Exchange Hybrid     =           TRUE
    MP2 Hybrid          =          FALSE

   => Exchange Functionals <=

    1.0000   XC_HYB_MGGA_X_M06_2X

   => Exact (HF) Exchange <=

    0.5400               HF 

   => Correlation Functionals <=

    1.0000   XC_MGGA_C_M06_2X

   => Molecular Quadrature <=

    Radial Scheme       =       TREUTLER
    Pruning Scheme      =           FLAT
    Nuclear Scheme      =       TREUTLER

    BS radius alpha     =              1
    Pruning alpha       =              1
    Radial Points       =             75
    Spherical Points    =            302
    Total Points        =         294155
    Total Blocks        =           2256
    Max Points          =            256
    Max Functions       =            207

   => Loading Basis Set <=

    Name: (6-311++G(D,P) AUX)
    Role: JKFIT
    Keyword: DF_BASIS_SCF
    atoms 1, 6, 11       entry C          line   162 file /root/psi4conda/share/psi4/basis/aug-cc-pvtz-jkfit.gbs 
    atoms 2, 9           entry O          line   286 file /root/psi4conda/share/psi4/basis/aug-cc-pvtz-jkfit.gbs 
    atoms 3-4, 12        entry CL         line   816 file /root/psi4conda/share/psi4/basis/aug-cc-pvtz-jkfit.gbs 
    atoms 5, 7-8, 10, 13 entry H          line    70 file /root/psi4conda/share/psi4/basis/aug-cc-pvtz-jkfit.gbs 

  ==> Pre-Iterations <==

   -------------------------------------------------------
    Irrep   Nso     Nmo     Nalpha   Nbeta   Ndocc  Nsocc
   -------------------------------------------------------
     A        235     235       0       0       0       0
   -------------------------------------------------------
    Total     235     235      45      45      45       0
   -------------------------------------------------------

  ==> Integral Setup <==

  ==> DiskDFJK: Density-Fitted J/K Matrices <==

    J tasked:                  Yes
    K tasked:                  Yes
    wK tasked:                  No
    OpenMP threads:             16
    Integrals threads:          16
    Memory (MB):               375
    Algorithm:                Core
    Integral Cache:           NONE
    Schwarz Cutoff:          1E-12
    Fitting Condition:       1E-12

   => Auxiliary Basis Set <=

  Basis Set: (6-311++G(D,P) AUX)
    Blend: AUG-CC-PVTZ-JKFIT
    Number of shells: 346
    Number of basis function: 1188
    Number of Cartesian functions: 1470
    Spherical Harmonics?: true
    Max angular momentum: 4

  Minimum eigenvalue in the overlap matrix is 2.3032961920E-05.
  Using Symmetric Orthogonalization.

  SCF Guess: Superposition of Atomic Densities via on-the-fly atomic UHF.

  ==> Iterations <==

                           Total Energy        Delta E     RMS |[F,P]|

   @DF-RKS iter   0: -1650.19783712727281   -1.65020e+03   7.97528e-02 
   @DF-RKS iter   1: -1648.00957731651511    2.18826e+00   1.17233e-02 
   @DF-RKS iter   2: -1647.78359918937758    2.25978e-01   1.89217e-02 DIIS
   @DF-RKS iter   3: -1648.23922313371486   -4.55624e-01   1.62286e-03 DIIS
   @DF-RKS iter   4: -1648.24238753321652   -3.16440e-03   9.09252e-04 DIIS
   @DF-RKS iter   5: -1648.24341261028621   -1.02508e-03   3.74994e-04 DIIS
   @DF-RKS iter   6: -1648.24359295024897   -1.80340e-04   7.97254e-05 DIIS
   @DF-RKS iter   7: -1648.24360446198011   -1.15117e-05   3.10991e-05 DIIS
   @DF-RKS iter   8: -1648.24360628841828   -1.82644e-06   1.12705e-05 DIIS
   @DF-RKS iter   9: -1648.24360649867572   -2.10257e-07   2.74662e-06 DIIS
   @DF-RKS iter  10: -1648.24360651629081   -1.76151e-08   6.72528e-07 DIIS
   @DF-RKS iter  11: -1648.24360651758707   -1.29626e-09   1.62910e-07 DIIS
   @DF-RKS iter  12: -1648.24360651766301   -7.59428e-11   6.11900e-08 DIIS
   @DF-RKS iter  13: -1648.24360651767552   -1.25056e-11   1.83776e-08 DIIS
   @DF-RKS iter  14: -1648.24360651767620   -6.82121e-13   5.88291e-09 DIIS

  ==> Post-Iterations <==

    Orbital Energies [Eh]
    ---------------------

    Doubly Occupied:                                                      

       1A   -102.701302     2A   -102.697317     3A   -102.694221  
       4A    -19.717122     5A    -19.597845     6A    -10.733210  
       7A    -10.691098     8A    -10.629751     9A     -9.844055  
      10A     -9.839916    11A     -9.836881    12A     -7.569283  
      13A     -7.565310    14A     -7.562357    15A     -7.562140  
      16A     -7.561993    17A     -7.557873    18A     -7.557719  
      19A     -7.554791    20A     -7.554693    21A     -1.260675  
      22A     -1.131531    23A     -1.055837    24A     -0.943784  
      25A     -0.941780    26A     -0.847608    27A     -0.805476  
      28A     -0.687329    29A     -0.658518    30A     -0.613958  
      31A     -0.594245    32A     -0.560121    33A     -0.541203  
      34A     -0.538935    35A     -0.504916    36A     -0.475186  
      37A     -0.473300    38A     -0.425159    39A     -0.422331  
      40A     -0.408664    41A     -0.391649    42A     -0.388588  
      43A     -0.373773    44A     -0.364795    45A     -0.341844  

    Virtual:                                                              

      46A     -0.012975    47A      0.000841    48A      0.010167  
      49A      0.014080    50A      0.019444    51A      0.027514  
      52A      0.037969    53A      0.046329    54A      0.052493  
      55A      0.057617    56A      0.065626    57A      0.071733  
      58A      0.077951    59A      0.089704    60A      0.100008  
      61A      0.102296    62A      0.107836    63A      0.115051  
      64A      0.117984    65A      0.124908    66A      0.128826  
      67A      0.131494    68A      0.135595    69A      0.141972  
      70A      0.144916    71A      0.148103    72A      0.154271  
      73A      0.167914    74A      0.176129    75A      0.184496  
      76A      0.189927    77A      0.203059    78A      0.212417  
      79A      0.222251    80A      0.235231    81A      0.236068  
      82A      0.255252    83A      0.270445    84A      0.276052  
      85A      0.287117    86A      0.302194    87A      0.314227  
      88A      0.331152    89A      0.337415    90A      0.343248  
      91A      0.351971    92A      0.379686    93A      0.407291  
      94A      0.427503    95A      0.437142    96A      0.441302  
      97A      0.442383    98A      0.469949    99A      0.484754  
     100A      0.487534   101A      0.492442   102A      0.499207  
     103A      0.500320   104A      0.514977   105A      0.520101  
     106A      0.529413   107A      0.541418   108A      0.549164  
     109A      0.586057   110A      0.592112   111A      0.604716  
     112A      0.611705   113A      0.648930   114A      0.673522  
     115A      0.685529   116A      0.705182   117A      0.734256  
     118A      0.843859   119A      0.886217   120A      0.901668  
     121A      0.913632   122A      0.919687   123A      0.926648  
     124A      0.933936   125A      0.950742   126A      0.958532  
     127A      0.975277   128A      0.977280   129A      0.983404  
     130A      1.005042   131A      1.012194   132A      1.041627  
     133A      1.057934   134A      1.063424   135A      1.114541  
     136A      1.155767   137A      1.162877   138A      1.174626  
     139A      1.193703   140A      1.231407   141A      1.247571  
     142A      1.284302   143A      1.306914   144A      1.320828  
     145A      1.347006   146A      1.365486   147A      1.377911  
     148A      1.402824   149A      1.451900   150A      1.504448  
     151A      1.537881   152A      1.557245   153A      1.561859  
     154A      1.590854   155A      1.614913   156A      1.639194  
     157A      1.707658   158A      1.716000   159A      1.721002  
     160A      1.750650   161A      1.773462   162A      1.807338  
     163A      1.854266   164A      1.872507   165A      1.899634  
     166A      1.966406   167A      2.004529   168A      2.051481  
     169A      2.068572   170A      2.150110   171A      2.196672  
     172A      2.287870   173A      2.293162   174A      2.318151  
     175A      2.322557   176A      2.346092   177A      2.351355  
     178A      2.370556   179A      2.449266   180A      2.491354  
     181A      2.503870   182A      2.528214   183A      2.536968  
     184A      2.556288   185A      2.591882   186A      2.599345  
     187A      2.609281   188A      2.738187   189A      2.769273  
     190A      2.795050   191A      2.898543   192A      2.929462  
     193A      2.987299   194A      3.026424   195A      3.076085  
     196A      3.118509   197A      3.134211   198A      3.157550  
     199A      3.242458   200A      3.382166   201A      3.455214  
     202A      3.542923   203A      3.733479   204A      3.789613  
     205A      3.827389   206A      3.853984   207A      3.982272  
     208A      4.043038   209A      4.157515   210A      5.232164  
     211A      5.257943   212A      5.294084   213A      5.335826  
     214A      5.627818   215A      5.789758   216A      9.933086  
     217A      9.940772   218A      9.961599   219A     23.500289  
     220A     23.840859   221A     23.958796   222A     25.951113  
     223A     25.993634   224A     26.007359   225A     26.018828  
     226A     26.096395   227A     26.100520   228A     26.521385  
     229A     26.551617   230A     26.813032   231A     49.966157  
     232A     50.120090   233A    216.033127   234A    216.042942  
     235A    216.074838  

    Final Occupation by Irrep:
              A 
    DOCC [    45 ]

  Energy converged.

  @DF-RKS Final Energy: -1648.24360651767620

   => Energetics <=

    Nuclear Repulsion Energy =            679.4716253750474380
    One-Electron Energy =               -3623.4658855360426060
    Two-Electron Energy =                1352.8443883114034634
    DFT Exchange-Correlation Energy =     -57.0937346680847213
    Empirical Dispersion Energy =           0.0000000000000000
    VV10 Nonlocal Energy =                  0.0000000000000000
    Total Energy =                      -1648.2436065176761986



Properties will be evaluated at   0.000000,   0.000000,   0.000000 [a0]

Properties computed using the SCF density matrix

  Nuclear Dipole Moment: [e a0]
     X:     3.9819      Y:     8.4897      Z:   -11.8282

  Electronic Dipole Moment: [e a0]
     X:    -2.8144      Y:    -7.2427      Z:    11.2136

  Dipole Moment: [e a0]
     X:     1.1675      Y:     1.2470      Z:    -0.6146     Total:     1.8155

  Dipole Moment: [D]
     X:     2.9675      Y:     3.1696      Z:    -1.5623     Total:     4.6144


*** tstop() called on localhost.localdomain at Thu Jan 17 16:42:49 2019
Module time:
	user time   =     280.60 seconds =       4.68 minutes
	system time =       5.26 seconds =       0.09 minutes
	total time  =         19 seconds =       0.32 minutes
Total time:
	user time   =     657.08 seconds =      10.95 minutes
	system time =      13.07 seconds =       0.22 minutes
	total time  =         46 seconds =       0.77 minutes

*** tstart() called on localhost.localdomain
*** at Thu Jan 17 16:42:49 2019


         ------------------------------------------------------------
                                   SCF GRAD                          
                          Rob Parrish, Justin Turney,                
                       Andy Simmonett, and Alex Sokolov              
         ------------------------------------------------------------

  ==> Geometry <==

    Molecular point group: c1
    Full point group: C1

    Geometry (in Angstrom), charge = 0, multiplicity = 1:

       Center              X                  Y                   Z               Mass       
    ------------   -----------------  -----------------  -----------------  -----------------
         C            0.040009225592    -0.059533656485    -1.173580586332    12.000000000000
         O           -1.015789874390    -0.278656997818    -1.886221617452    15.994914619560
         CL           1.423711448213     0.380987806495     1.119531317243    34.968852682000
         CL          -1.487943054466     0.325326069591     1.062487678244    34.968852682000
         H            0.777264482365     3.176102999425    -2.228593643484     1.007825032070
         C            1.086433146164     2.157595045669    -2.004481314386    12.000000000000
         H            1.317418884130     1.616636647251    -2.925148747328     1.007825032070
         H            1.947006315932     2.167103999198    -1.338303423788     1.007825032070
         O            0.001963958732     1.521842119041    -1.314977987815    15.994914619560
         H           -0.860347707501     1.094756418837    -1.911163956824     1.007825032070
         C           -0.019137043484    -0.337087158005     0.350475060473    12.000000000000
         CL           0.026470643871    -2.100821949107     0.539126964977    34.968852682000
         H            1.034521311074    -0.366741082870    -1.540377110653     1.007825032070

  Nuclear repulsion =  679.471625375047438

  ==> Basis Set <==

  Basis Set: 6-311++G(D,P)
    Blend: 6-311++G(D,P)
    Number of shells: 117
    Number of basis function: 235
    Number of Cartesian functions: 243
    Spherical Harmonics?: true
    Max angular momentum: 2

  ==> DFJKGrad: Density-Fitted SCF Gradients <==

    Gradient:                    1
    J tasked:                  Yes
    K tasked:                  Yes
    wK tasked:                  No
    OpenMP threads:             16
    Integrals threads:          16
    Memory (MB):               375
    Schwarz Cutoff:          0E+00
    Fitting Condition:       1E-12

   => Auxiliary Basis Set <=

  Basis Set: (6-311++G(D,P) AUX)
    Blend: AUG-CC-PVTZ-JKFIT
    Number of shells: 346
    Number of basis function: 1188
    Number of Cartesian functions: 1470
    Spherical Harmonics?: true
    Max angular momentum: 4

  ==> DFT Potential <==

   => Composite Functional: M06-2X <= 

    Hybrid M06-2X Meta-GGA XC Functional

    Y. Zhao and D. G. Truhlar,  Theor. Chem. Acc., 120, 215, 2008


    Deriv               =              1
    GGA                 =           TRUE
    Meta                =           TRUE

    Exchange Hybrid     =           TRUE
    MP2 Hybrid          =          FALSE

   => Exchange Functionals <=

    1.0000   XC_HYB_MGGA_X_M06_2X

   => Exact (HF) Exchange <=

    0.5400               HF 

   => Correlation Functionals <=

    1.0000   XC_MGGA_C_M06_2X

   => Molecular Quadrature <=

    Radial Scheme       =       TREUTLER
    Pruning Scheme      =           FLAT
    Nuclear Scheme      =       TREUTLER

    BS radius alpha     =              1
    Pruning alpha       =              1
    Radial Points       =             75
    Spherical Points    =            302
    Total Points        =         294155
    Total Blocks        =           2256
    Max Points          =            256
    Max Functions       =            207


  -Total Gradient:
     Atom            X                  Y                   Z
    ------   -----------------  -----------------  -----------------
       1       -0.001203673571     0.000038258015    -0.000107210243
       2        0.000586660680     0.000178824785     0.000278618481
       3       -0.000152208788    -0.000065725621     0.000002210376
       4       -0.000103716541     0.000063498081     0.000047235122
       5        0.000037444428     0.000022238184     0.000031397259
       6        0.000008627317     0.000046951778    -0.000002380329
       7        0.000020099741     0.000030006026     0.000023346952
       8        0.000010463098    -0.000005238661     0.000035478991
       9        0.000130965323    -0.000024854556    -0.000000812435
      10        0.000056305842    -0.000053610551     0.000039416657
      11        0.000349304681     0.000050650080    -0.000086472140
      12        0.000022189660    -0.000052122867    -0.000001356248
      13        0.000363613918    -0.000097732153    -0.000116563332


*** tstop() called on localhost.localdomain at Thu Jan 17 16:42:55 2019
Module time:
	user time   =      77.84 seconds =       1.30 minutes
	system time =       2.36 seconds =       0.04 minutes
	total time  =          6 seconds =       0.10 minutes
Total time:
	user time   =     734.95 seconds =      12.25 minutes
	system time =      15.44 seconds =       0.26 minutes
	total time  =         52 seconds =       0.87 minutes

  //>>>>>>>>>>>>>>>>>>>>>>>>>>>>>>>>>>>//
  //    Loading displacement 2 of 67   //
  //<<<<<<<<<<<<<<<<<<<<<<<<<<<<<<<<<<<//
gradient() will perform analytic gradient computation.

*** tstart() called on localhost.localdomain
*** at Thu Jan 17 16:42:55 2019

   => Loading Basis Set <=

    Name: 6-311++G(D,P)
    Role: ORBITAL
    Keyword: BASIS
    atoms 1, 6, 11       entry C          line   119 file /root/psi4conda/share/psi4/basis/6-311ppg_d_p_.gbs 
    atoms 2, 9           entry O          line   161 file /root/psi4conda/share/psi4/basis/6-311ppg_d_p_.gbs 
    atoms 3-4, 12        entry CL         line   458 file /root/psi4conda/share/psi4/basis/6-311ppg_d_p_.gbs 
    atoms 5, 7-8, 10, 13 entry H          line    42 file /root/psi4conda/share/psi4/basis/6-311ppg_d_p_.gbs 


         ---------------------------------------------------------
                                   SCF
            by Justin Turney, Rob Parrish, Andy Simmonett
                             and Daniel Smith
                              RKS Reference
                       16 Threads,    500 MiB Core
         ---------------------------------------------------------

  ==> Geometry <==

    Molecular point group: c1
    Full point group: C1

    Geometry (in Angstrom), charge = 0, multiplicity = 1:

       Center              X                  Y                   Z               Mass       
    ------------   -----------------  -----------------  -----------------  -----------------
         C            0.041452600195    -0.059529428518    -1.173583033760    12.000000000000
         O           -1.016005010994    -0.278634259314    -1.886167829934    15.994914619560
         CL           1.423668567388     0.380962210071     1.119455899639    34.968852682000
         CL          -1.487989835978     0.325343636150     1.062569477536    34.968852682000
         H            0.777081765777     3.176100710219    -2.228622601086     1.007825032070
         C            1.086247531108     2.157587276165    -2.004531180470    12.000000000000
         H            1.317175508488     1.616629260538    -2.925213327921     1.007825032070
         H            1.946856862812     2.167080800616    -1.338399786660     1.007825032070
         O            0.001806256350     1.521847501475    -1.314971828395    15.994914619560
         H           -0.860543943731     1.094776968034    -1.911112924588     1.007825032070
         C           -0.019232095374    -0.337088317119     0.350474710979    12.000000000000
         CL           0.026359788941    -2.100824556685     0.539116893133    34.968852682000
         H            1.034323573846    -0.366749996369    -1.540434555243     1.007825032070

  Running in c1 symmetry.

  Rotational constants: A =      0.04841  B =      0.03180  C =      0.02895 [cm^-1]
  Rotational constants: A =   1451.31536  B =    953.34476  C =    867.89149 [MHz]
  Nuclear repulsion =  679.455529967822258

  Charge       = 0
  Multiplicity = 1
  Electrons    = 90
  Nalpha       = 45
  Nbeta        = 45

  ==> Algorithm <==

  SCF Algorithm Type is DF.
  DIIS enabled.
  MOM disabled.
  Fractional occupation disabled.
  Guess Type is SAD.
  Energy threshold   = 1.00e-08
  Density threshold  = 1.00e-08
  Integral threshold = 0.00e+00

  ==> Primary Basis <==

  Basis Set: 6-311++G(D,P)
    Blend: 6-311++G(D,P)
    Number of shells: 117
    Number of basis function: 235
    Number of Cartesian functions: 243
    Spherical Harmonics?: true
    Max angular momentum: 2

  ==> DFT Potential <==

   => Composite Functional: M06-2X <= 

    Hybrid M06-2X Meta-GGA XC Functional

    Y. Zhao and D. G. Truhlar,  Theor. Chem. Acc., 120, 215, 2008


    Deriv               =              1
    GGA                 =           TRUE
    Meta                =           TRUE

    Exchange Hybrid     =           TRUE
    MP2 Hybrid          =          FALSE

   => Exchange Functionals <=

    1.0000   XC_HYB_MGGA_X_M06_2X

   => Exact (HF) Exchange <=

    0.5400               HF 

   => Correlation Functionals <=

    1.0000   XC_MGGA_C_M06_2X

   => Molecular Quadrature <=

    Radial Scheme       =       TREUTLER
    Pruning Scheme      =           FLAT
    Nuclear Scheme      =       TREUTLER

    BS radius alpha     =              1
    Pruning alpha       =              1
    Radial Points       =             75
    Spherical Points    =            302
    Total Points        =         294155
    Total Blocks        =           2257
    Max Points          =            256
    Max Functions       =            207

   => Loading Basis Set <=

    Name: (6-311++G(D,P) AUX)
    Role: JKFIT
    Keyword: DF_BASIS_SCF
    atoms 1, 6, 11       entry C          line   162 file /root/psi4conda/share/psi4/basis/aug-cc-pvtz-jkfit.gbs 
    atoms 2, 9           entry O          line   286 file /root/psi4conda/share/psi4/basis/aug-cc-pvtz-jkfit.gbs 
    atoms 3-4, 12        entry CL         line   816 file /root/psi4conda/share/psi4/basis/aug-cc-pvtz-jkfit.gbs 
    atoms 5, 7-8, 10, 13 entry H          line    70 file /root/psi4conda/share/psi4/basis/aug-cc-pvtz-jkfit.gbs 

  ==> Pre-Iterations <==

   -------------------------------------------------------
    Irrep   Nso     Nmo     Nalpha   Nbeta   Ndocc  Nsocc
   -------------------------------------------------------
     A        235     235       0       0       0       0
   -------------------------------------------------------
    Total     235     235      45      45      45       0
   -------------------------------------------------------

  ==> Integral Setup <==

  ==> DiskDFJK: Density-Fitted J/K Matrices <==

    J tasked:                  Yes
    K tasked:                  Yes
    wK tasked:                  No
    OpenMP threads:             16
    Integrals threads:          16
    Memory (MB):               375
    Algorithm:                Core
    Integral Cache:           NONE
    Schwarz Cutoff:          1E-12
    Fitting Condition:       1E-12

   => Auxiliary Basis Set <=

  Basis Set: (6-311++G(D,P) AUX)
    Blend: AUG-CC-PVTZ-JKFIT
    Number of shells: 346
    Number of basis function: 1188
    Number of Cartesian functions: 1470
    Spherical Harmonics?: true
    Max angular momentum: 4

  Minimum eigenvalue in the overlap matrix is 2.3026456933E-05.
  Using Symmetric Orthogonalization.

  SCF Guess: Superposition of Atomic Densities via on-the-fly atomic UHF.

  ==> Iterations <==

                           Total Energy        Delta E     RMS |[F,P]|

   @DF-RKS iter   0: -1650.27005088514170   -1.65027e+03   7.75967e-02 
   @DF-RKS iter   1: -1648.05560027388788    2.21445e+00   1.06812e-02 
   @DF-RKS iter   2: -1647.92705112344856    1.28549e-01   1.45954e-02 DIIS
   @DF-RKS iter   3: -1648.23889523573462   -3.11844e-01   1.59315e-03 DIIS
   @DF-RKS iter   4: -1648.24285760371686   -3.96237e-03   6.62803e-04 DIIS
   @DF-RKS iter   5: -1648.24343609746347   -5.78494e-04   3.46742e-04 DIIS
   @DF-RKS iter   6: -1648.24359300766832   -1.56910e-04   8.37437e-05 DIIS
   @DF-RKS iter   7: -1648.24360574470938   -1.27370e-05   2.21184e-05 DIIS
   @DF-RKS iter   8: -1648.24360682327483   -1.07857e-06   8.56788e-06 DIIS
   @DF-RKS iter   9: -1648.24360696136773   -1.38093e-07   2.53324e-06 DIIS
   @DF-RKS iter  10: -1648.24360697646671   -1.50990e-08   6.29306e-07 DIIS
   @DF-RKS iter  11: -1648.24360697764041   -1.17370e-09   1.39681e-07 DIIS
   @DF-RKS iter  12: -1648.24360697770430   -6.38920e-11   3.92083e-08 DIIS
   @DF-RKS iter  13: -1648.24360697771044   -6.13909e-12   1.05564e-08 DIIS
   @DF-RKS iter  14: -1648.24360697771044    0.00000e+00   5.27734e-09 DIIS

  ==> Post-Iterations <==

    Orbital Energies [Eh]
    ---------------------

    Doubly Occupied:                                                      

       1A   -102.701289     2A   -102.697331     3A   -102.694269  
       4A    -19.717204     5A    -19.597681     6A    -10.733261  
       7A    -10.691080     8A    -10.629773     9A     -9.844046  
      10A     -9.839930    11A     -9.836925    12A     -7.569273  
      13A     -7.565323    14A     -7.562402    15A     -7.562131  
      16A     -7.561984    17A     -7.557887    18A     -7.557732  
      19A     -7.554834    20A     -7.554736    21A     -1.260529  
      22A     -1.130988    23A     -1.055817    24A     -0.943798  
      25A     -0.941800    26A     -0.847575    27A     -0.805608  
      28A     -0.687509    29A     -0.658441    30A     -0.614001  
      31A     -0.594295    32A     -0.560112    33A     -0.541181  
      34A     -0.538919    35A     -0.504788    36A     -0.475161  
      37A     -0.473327    38A     -0.425178    39A     -0.422332  
      40A     -0.408588    41A     -0.391653    42A     -0.388606  
      43A     -0.373788    44A     -0.364612    45A     -0.341808  

    Virtual:                                                              

      46A     -0.012989    47A      0.000837    48A      0.010156  
      49A      0.014073    50A      0.019410    51A      0.027491  
      52A      0.037963    53A      0.046316    54A      0.052491  
      55A      0.057606    56A      0.065627    57A      0.071687  
      58A      0.077915    59A      0.089700    60A      0.099997  
      61A      0.102273    62A      0.107853    63A      0.115058  
      64A      0.117976    65A      0.124873    66A      0.128812  
      67A      0.131509    68A      0.135598    69A      0.141980  
      70A      0.144925    71A      0.148099    72A      0.154277  
      73A      0.167892    74A      0.176168    75A      0.184510  
      76A      0.189915    77A      0.203076    78A      0.212421  
      79A      0.222253    80A      0.235087    81A      0.235987  
      82A      0.255284    83A      0.270430    84A      0.276058  
      85A      0.287089    86A      0.302126    87A      0.314287  
      88A      0.331118    89A      0.337499    90A      0.343179  
      91A      0.351959    92A      0.379665    93A      0.407216  
      94A      0.427520    95A      0.437123    96A      0.441278  
      97A      0.442362    98A      0.469901    99A      0.484716  
     100A      0.487536   101A      0.492439   102A      0.499121  
     103A      0.500372   104A      0.514972   105A      0.520121  
     106A      0.529425   107A      0.541455   108A      0.549219  
     109A      0.585781   110A      0.592197   111A      0.604581  
     112A      0.611637   113A      0.648956   114A      0.673519  
     115A      0.685359   116A      0.705146   117A      0.734394  
     118A      0.843711   119A      0.886155   120A      0.901644  
     121A      0.913679   122A      0.919655   123A      0.926623  
     124A      0.933931   125A      0.950724   126A      0.958499  
     127A      0.975248   128A      0.977271   129A      0.983401  
     130A      1.005028   131A      1.012151   132A      1.041713  
     133A      1.057925   134A      1.063439   135A      1.114484  
     136A      1.155923   137A      1.162833   138A      1.174554  
     139A      1.193694   140A      1.231348   141A      1.247643  
     142A      1.284439   143A      1.306988   144A      1.320960  
     145A      1.347055   146A      1.365277   147A      1.377941  
     148A      1.402616   149A      1.451871   150A      1.504527  
     151A      1.537904   152A      1.557283   153A      1.562011  
     154A      1.590977   155A      1.614968   156A      1.639188  
     157A      1.707696   158A      1.716089   159A      1.721001  
     160A      1.750877   161A      1.773466   162A      1.807251  
     163A      1.854294   164A      1.872568   165A      1.899633  
     166A      1.966189   167A      2.004509   168A      2.051405  
     169A      2.068280   170A      2.150152   171A      2.196721  
     172A      2.287858   173A      2.293271   174A      2.318205  
     175A      2.322566   176A      2.346129   177A      2.351342  
     178A      2.370593   179A      2.449327   180A      2.491298  
     181A      2.505088   182A      2.528352   183A      2.536983  
     184A      2.556307   185A      2.592067   186A      2.599390  
     187A      2.609285   188A      2.738177   189A      2.769076  
     190A      2.794749   191A      2.898734   192A      2.929352  
     193A      2.986930   194A      3.025971   195A      3.076210  
     196A      3.118451   197A      3.134123   198A      3.157732  
     199A      3.240958   200A      3.380252   201A      3.454040  
     202A      3.542819   203A      3.733634   204A      3.790311  
     205A      3.827403   206A      3.854439   207A      3.982125  
     208A      4.043196   209A      4.157757   210A      5.232157  
     211A      5.257923   212A      5.294089   213A      5.335835  
     214A      5.627616   215A      5.788853   216A      9.933069  
     217A      9.940756   218A      9.961583   219A     23.500186  
     220A     23.840931   221A     23.958770   222A     25.951102  
     223A     25.993619   224A     26.007350   225A     26.018809  
     226A     26.096268   227A     26.100608   228A     26.521222  
     229A     26.551766   230A     26.813022   231A     49.966090  
     232A     50.119781   233A    216.033121   234A    216.042901  
     235A    216.074836  

    Final Occupation by Irrep:
              A 
    DOCC [    45 ]

  Energy converged.

  @DF-RKS Final Energy: -1648.24360697771044

   => Energetics <=

    Nuclear Repulsion Energy =            679.4555299678222582
    One-Electron Energy =               -3623.4350111775511323
    Two-Electron Energy =                1352.8294387644871222
    DFT Exchange-Correlation Energy =     -57.0935645324687968
    Empirical Dispersion Energy =           0.0000000000000000
    VV10 Nonlocal Energy =                  0.0000000000000000
    Total Energy =                      -1648.2436069777104422



Properties will be evaluated at   0.000000,   0.000000,   0.000000 [a0]

Properties computed using the SCF density matrix

  Nuclear Dipole Moment: [e a0]
     X:     3.9812      Y:     8.4897      Z:   -11.8284

  Electronic Dipole Moment: [e a0]
     X:    -2.8116      Y:    -7.2422      Z:    11.2148

  Dipole Moment: [e a0]
     X:     1.1696      Y:     1.2475      Z:    -0.6136     Total:     1.8168

  Dipole Moment: [D]
     X:     2.9728      Y:     3.1707      Z:    -1.5596     Total:     4.6177


*** tstop() called on localhost.localdomain at Thu Jan 17 16:43:14 2019
Module time:
	user time   =     274.89 seconds =       4.58 minutes
	system time =       5.26 seconds =       0.09 minutes
	total time  =         19 seconds =       0.32 minutes
Total time:
	user time   =    1010.06 seconds =      16.83 minutes
	system time =      20.73 seconds =       0.35 minutes
	total time  =         71 seconds =       1.18 minutes

*** tstart() called on localhost.localdomain
*** at Thu Jan 17 16:43:14 2019


         ------------------------------------------------------------
                                   SCF GRAD                          
                          Rob Parrish, Justin Turney,                
                       Andy Simmonett, and Alex Sokolov              
         ------------------------------------------------------------

  ==> Geometry <==

    Molecular point group: c1
    Full point group: C1

    Geometry (in Angstrom), charge = 0, multiplicity = 1:

       Center              X                  Y                   Z               Mass       
    ------------   -----------------  -----------------  -----------------  -----------------
         C            0.041452600195    -0.059529428518    -1.173583033760    12.000000000000
         O           -1.016005010994    -0.278634259314    -1.886167829934    15.994914619560
         CL           1.423668567388     0.380962210071     1.119455899639    34.968852682000
         CL          -1.487989835978     0.325343636150     1.062569477536    34.968852682000
         H            0.777081765777     3.176100710219    -2.228622601086     1.007825032070
         C            1.086247531108     2.157587276165    -2.004531180470    12.000000000000
         H            1.317175508488     1.616629260538    -2.925213327921     1.007825032070
         H            1.946856862812     2.167080800616    -1.338399786660     1.007825032070
         O            0.001806256350     1.521847501475    -1.314971828395    15.994914619560
         H           -0.860543943731     1.094776968034    -1.911112924588     1.007825032070
         C           -0.019232095374    -0.337088317119     0.350474710979    12.000000000000
         CL           0.026359788941    -2.100824556685     0.539116893133    34.968852682000
         H            1.034323573846    -0.366749996369    -1.540434555243     1.007825032070

  Nuclear repulsion =  679.455529967822258

  ==> Basis Set <==

  Basis Set: 6-311++G(D,P)
    Blend: 6-311++G(D,P)
    Number of shells: 117
    Number of basis function: 235
    Number of Cartesian functions: 243
    Spherical Harmonics?: true
    Max angular momentum: 2

  ==> DFJKGrad: Density-Fitted SCF Gradients <==

    Gradient:                    1
    J tasked:                  Yes
    K tasked:                  Yes
    wK tasked:                  No
    OpenMP threads:             16
    Integrals threads:          16
    Memory (MB):               375
    Schwarz Cutoff:          0E+00
    Fitting Condition:       1E-12

   => Auxiliary Basis Set <=

  Basis Set: (6-311++G(D,P) AUX)
    Blend: AUG-CC-PVTZ-JKFIT
    Number of shells: 346
    Number of basis function: 1188
    Number of Cartesian functions: 1470
    Spherical Harmonics?: true
    Max angular momentum: 4

  ==> DFT Potential <==

   => Composite Functional: M06-2X <= 

    Hybrid M06-2X Meta-GGA XC Functional

    Y. Zhao and D. G. Truhlar,  Theor. Chem. Acc., 120, 215, 2008


    Deriv               =              1
    GGA                 =           TRUE
    Meta                =           TRUE

    Exchange Hybrid     =           TRUE
    MP2 Hybrid          =          FALSE

   => Exchange Functionals <=

    1.0000   XC_HYB_MGGA_X_M06_2X

   => Exact (HF) Exchange <=

    0.5400               HF 

   => Correlation Functionals <=

    1.0000   XC_MGGA_C_M06_2X

   => Molecular Quadrature <=

    Radial Scheme       =       TREUTLER
    Pruning Scheme      =           FLAT
    Nuclear Scheme      =       TREUTLER

    BS radius alpha     =              1
    Pruning alpha       =              1
    Radial Points       =             75
    Spherical Points    =            302
    Total Points        =         294155
    Total Blocks        =           2257
    Max Points          =            256
    Max Functions       =            207


  -Total Gradient:
     Atom            X                  Y                   Z
    ------   -----------------  -----------------  -----------------
       1        0.000974011163    -0.000316607771    -0.000005650477
       2       -0.000363768951    -0.000017566794    -0.000112261200
       3       -0.000200395063    -0.000083058233    -0.000091487619
       4       -0.000161129425     0.000075099196     0.000141013645
       5        0.000032218875     0.000021405351     0.000033953831
       6        0.000010570873    -0.000004767895     0.000002986876
       7        0.000025312826     0.000027112581     0.000026433047
       8        0.000007848604    -0.000009980733     0.000035225615
       9       -0.000175090107     0.000135354129    -0.000062179334
      10        0.000139705496     0.000213148067     0.000037464263
      11        0.000154774652     0.000058944971     0.000012463011
      12        0.000028925241    -0.000050197162    -0.000002553519
      13       -0.000350108265     0.000081862387     0.000127071112


*** tstop() called on localhost.localdomain at Thu Jan 17 16:43:19 2019
Module time:
	user time   =      76.38 seconds =       1.27 minutes
	system time =       2.45 seconds =       0.04 minutes
	total time  =          5 seconds =       0.08 minutes
Total time:
	user time   =    1086.48 seconds =      18.11 minutes
	system time =      23.19 seconds =       0.39 minutes
	total time  =         76 seconds =       1.27 minutes

  //>>>>>>>>>>>>>>>>>>>>>>>>>>>>>>>>>>>//
  //    Loading displacement 3 of 67   //
  //<<<<<<<<<<<<<<<<<<<<<<<<<<<<<<<<<<<//
gradient() will perform analytic gradient computation.

*** tstart() called on localhost.localdomain
*** at Thu Jan 17 16:43:19 2019

   => Loading Basis Set <=

    Name: 6-311++G(D,P)
    Role: ORBITAL
    Keyword: BASIS
    atoms 1, 6, 11       entry C          line   119 file /root/psi4conda/share/psi4/basis/6-311ppg_d_p_.gbs 
    atoms 2, 9           entry O          line   161 file /root/psi4conda/share/psi4/basis/6-311ppg_d_p_.gbs 
    atoms 3-4, 12        entry CL         line   458 file /root/psi4conda/share/psi4/basis/6-311ppg_d_p_.gbs 
    atoms 5, 7-8, 10, 13 entry H          line    42 file /root/psi4conda/share/psi4/basis/6-311ppg_d_p_.gbs 


         ---------------------------------------------------------
                                   SCF
            by Justin Turney, Rob Parrish, Andy Simmonett
                             and Daniel Smith
                              RKS Reference
                       16 Threads,    500 MiB Core
         ---------------------------------------------------------

  ==> Geometry <==

    Molecular point group: c1
    Full point group: C1

    Geometry (in Angstrom), charge = 0, multiplicity = 1:

       Center              X                  Y                   Z               Mass       
    ------------   -----------------  -----------------  -----------------  -----------------
         C            0.040730912894    -0.060256922225    -1.173583136161    12.000000000000
         O           -1.015901084793    -0.278552070941    -1.886198656096    15.994914619560
         CL           1.423691859982     0.381006125742     1.119498919524    34.968852682000
         CL          -1.487964685905     0.325366405443     1.062538210573    34.968852682000
         H            0.777167934252     3.176203066563    -2.228542933934     1.007825032070
         C            1.086335837284     2.157687750403    -2.004463016361    12.000000000000
         H            1.317291100502     1.616748924933    -2.925149594499     1.007825032070
         H            1.946928341421     2.167175234236    -1.338309797212     1.007825032070
         O            0.001882072162     1.521926646074    -1.314942974291    15.994914619560
         H           -0.860449873397     1.094860815123    -1.911113843807     1.007825032070
         C           -0.019183979541    -0.337040858304     0.350467847786    12.000000000000
         CL           0.026416622529    -2.100780320668     0.539077791472    34.968852682000
         H            1.034419475271    -0.366658703282    -1.540415479620     1.007825032070

  Running in c1 symmetry.

  Rotational constants: A =      0.04841  B =      0.03180  C =      0.02895 [cm^-1]
  Rotational constants: A =   1451.26054  B =    953.36721  C =    867.89141 [MHz]
  Nuclear repulsion =  679.458938584442308

  Charge       = 0
  Multiplicity = 1
  Electrons    = 90
  Nalpha       = 45
  Nbeta        = 45

  ==> Algorithm <==

  SCF Algorithm Type is DF.
  DIIS enabled.
  MOM disabled.
  Fractional occupation disabled.
  Guess Type is SAD.
  Energy threshold   = 1.00e-08
  Density threshold  = 1.00e-08
  Integral threshold = 0.00e+00

  ==> Primary Basis <==

  Basis Set: 6-311++G(D,P)
    Blend: 6-311++G(D,P)
    Number of shells: 117
    Number of basis function: 235
    Number of Cartesian functions: 243
    Spherical Harmonics?: true
    Max angular momentum: 2

  ==> DFT Potential <==

   => Composite Functional: M06-2X <= 

    Hybrid M06-2X Meta-GGA XC Functional

    Y. Zhao and D. G. Truhlar,  Theor. Chem. Acc., 120, 215, 2008


    Deriv               =              1
    GGA                 =           TRUE
    Meta                =           TRUE

    Exchange Hybrid     =           TRUE
    MP2 Hybrid          =          FALSE

   => Exchange Functionals <=

    1.0000   XC_HYB_MGGA_X_M06_2X

   => Exact (HF) Exchange <=

    0.5400               HF 

   => Correlation Functionals <=

    1.0000   XC_MGGA_C_M06_2X

   => Molecular Quadrature <=

    Radial Scheme       =       TREUTLER
    Pruning Scheme      =           FLAT
    Nuclear Scheme      =       TREUTLER

    BS radius alpha     =              1
    Pruning alpha       =              1
    Radial Points       =             75
    Spherical Points    =            302
    Total Points        =         294155
    Total Blocks        =           2256
    Max Points          =            256
    Max Functions       =            207

   => Loading Basis Set <=

    Name: (6-311++G(D,P) AUX)
    Role: JKFIT
    Keyword: DF_BASIS_SCF
    atoms 1, 6, 11       entry C          line   162 file /root/psi4conda/share/psi4/basis/aug-cc-pvtz-jkfit.gbs 
    atoms 2, 9           entry O          line   286 file /root/psi4conda/share/psi4/basis/aug-cc-pvtz-jkfit.gbs 
    atoms 3-4, 12        entry CL         line   816 file /root/psi4conda/share/psi4/basis/aug-cc-pvtz-jkfit.gbs 
    atoms 5, 7-8, 10, 13 entry H          line    70 file /root/psi4conda/share/psi4/basis/aug-cc-pvtz-jkfit.gbs 

  ==> Pre-Iterations <==

   -------------------------------------------------------
    Irrep   Nso     Nmo     Nalpha   Nbeta   Ndocc  Nsocc
   -------------------------------------------------------
     A        235     235       0       0       0       0
   -------------------------------------------------------
    Total     235     235      45      45      45       0
   -------------------------------------------------------

  ==> Integral Setup <==

  ==> DiskDFJK: Density-Fitted J/K Matrices <==

    J tasked:                  Yes
    K tasked:                  Yes
    wK tasked:                  No
    OpenMP threads:             16
    Integrals threads:          16
    Memory (MB):               375
    Algorithm:                Core
    Integral Cache:           NONE
    Schwarz Cutoff:          1E-12
    Fitting Condition:       1E-12

   => Auxiliary Basis Set <=

  Basis Set: (6-311++G(D,P) AUX)
    Blend: AUG-CC-PVTZ-JKFIT
    Number of shells: 346
    Number of basis function: 1188
    Number of Cartesian functions: 1470
    Spherical Harmonics?: true
    Max angular momentum: 4

  Minimum eigenvalue in the overlap matrix is 2.3020776157E-05.
  Using Symmetric Orthogonalization.

  SCF Guess: Superposition of Atomic Densities via on-the-fly atomic UHF.

  ==> Iterations <==

                           Total Energy        Delta E     RMS |[F,P]|

   @DF-RKS iter   0: -1650.08669475392117   -1.65009e+03   7.40370e-02 
   @DF-RKS iter   1: -1648.04485523261383    2.04184e+00   1.10938e-02 
   @DF-RKS iter   2: -1647.86503875396306    1.79816e-01   1.71801e-02 DIIS
   @DF-RKS iter   3: -1648.23960361954869   -3.74565e-01   1.61114e-03 DIIS
   @DF-RKS iter   4: -1648.24281758797679   -3.21397e-03   6.93969e-04 DIIS
   @DF-RKS iter   5: -1648.24349746013149   -6.79872e-04   2.45982e-04 DIIS
   @DF-RKS iter   6: -1648.24359018534824   -9.27252e-05   9.57432e-05 DIIS
   @DF-RKS iter   7: -1648.24360574286629   -1.55575e-05   2.24051e-05 DIIS
   @DF-RKS iter   8: -1648.24360691474044   -1.17187e-06   6.08276e-06 DIIS
   @DF-RKS iter   9: -1648.24360700210696   -8.73665e-08   1.83290e-06 DIIS
   @DF-RKS iter  10: -1648.24360700926309   -7.15613e-09   8.20121e-07 DIIS
   @DF-RKS iter  11: -1648.24360701045634   -1.19326e-09   2.45865e-07 DIIS
   @DF-RKS iter  12: -1648.24360701058436   -1.28011e-10   7.28427e-08 DIIS
   @DF-RKS iter  13: -1648.24360701059982   -1.54614e-11   2.12866e-08 DIIS
   @DF-RKS iter  14: -1648.24360701060186   -2.04636e-12   9.49698e-09 DIIS

  ==> Post-Iterations <==

    Orbital Energies [Eh]
    ---------------------

    Doubly Occupied:                                                      

       1A   -102.701317     2A   -102.697333     3A   -102.694266  
       4A    -19.717003     5A    -19.597818     6A    -10.733257  
       7A    -10.691097     8A    -10.629687     9A     -9.844071  
      10A     -9.839934    11A     -9.836923    12A     -7.569299  
      13A     -7.565327    14A     -7.562400    15A     -7.562155  
      16A     -7.562009    17A     -7.557891    18A     -7.557737  
      19A     -7.554833    20A     -7.554735    21A     -1.260408  
      22A     -1.131303    23A     -1.055856    24A     -0.943808  
      25A     -0.941810    26A     -0.847471    27A     -0.805580  
      28A     -0.687410    29A     -0.658375    30A     -0.613915  
      31A     -0.594211    32A     -0.560137    33A     -0.541180  
      34A     -0.538964    35A     -0.504938    36A     -0.475103  
      37A     -0.473201    38A     -0.425183    39A     -0.422344  
      40A     -0.408653    41A     -0.391659    42A     -0.388616  
      43A     -0.373795    44A     -0.364697    45A     -0.341893  

    Virtual:                                                              

      46A     -0.012970    47A      0.000825    48A      0.010170  
      49A      0.014078    50A      0.019391    51A      0.027481  
      52A      0.037955    53A      0.046324    54A      0.052488  
      55A      0.057618    56A      0.065617    57A      0.071666  
      58A      0.077903    59A      0.089692    60A      0.099999  
      61A      0.102242    62A      0.107838    63A      0.115052  
      64A      0.117986    65A      0.124868    66A      0.128803  
      67A      0.131514    68A      0.135592    69A      0.141981  
      70A      0.144913    71A      0.148073    72A      0.154270  
      73A      0.167903    74A      0.176160    75A      0.184498  
      76A      0.189933    77A      0.203082    78A      0.212423  
      79A      0.222279    80A      0.235177    81A      0.236076  
      82A      0.255272    83A      0.270443    84A      0.276094  
      85A      0.287146    86A      0.302153    87A      0.314282  
      88A      0.331121    89A      0.337423    90A      0.343222  
      91A      0.351986    92A      0.379673    93A      0.407270  
      94A      0.427497    95A      0.437128    96A      0.441298  
      97A      0.442362    98A      0.469949    99A      0.484743  
     100A      0.487519   101A      0.492457   102A      0.499177  
     103A      0.500377   104A      0.514962   105A      0.520087  
     106A      0.529418   107A      0.541426   108A      0.549194  
     109A      0.585911   110A      0.592160   111A      0.604740  
     112A      0.611703   113A      0.648991   114A      0.673576  
     115A      0.685475   116A      0.705184   117A      0.734353  
     118A      0.843750   119A      0.886177   120A      0.901650  
     121A      0.913654   122A      0.919673   123A      0.926616  
     124A      0.933926   125A      0.950723   126A      0.958504  
     127A      0.975278   128A      0.977289   129A      0.983409  
     130A      1.005059   131A      1.012203   132A      1.041673  
     133A      1.057994   134A      1.063470   135A      1.114576  
     136A      1.155889   137A      1.162884   138A      1.174565  
     139A      1.193690   140A      1.231377   141A      1.247565  
     142A      1.284399   143A      1.306926   144A      1.320884  
     145A      1.346953   146A      1.365368   147A      1.377985  
     148A      1.402796   149A      1.451935   150A      1.504351  
     151A      1.537992   152A      1.557393   153A      1.561951  
     154A      1.590971   155A      1.614928   156A      1.639063  
     157A      1.707778   158A      1.716071   159A      1.721049  
     160A      1.750763   161A      1.773500   162A      1.807141  
     163A      1.854291   164A      1.872625   165A      1.899665  
     166A      1.966282   167A      2.004521   168A      2.051461  
     169A      2.068343   170A      2.150145   171A      2.196797  
     172A      2.287849   173A      2.293351   174A      2.318215  
     175A      2.322548   176A      2.346110   177A      2.351373  
     178A      2.370590   179A      2.449355   180A      2.491344  
     181A      2.504608   182A      2.528329   183A      2.537010  
     184A      2.556310   185A      2.592038   186A      2.599379  
     187A      2.609305   188A      2.737992   189A      2.769090  
     190A      2.794782   191A      2.898665   192A      2.929435  
     193A      2.987254   194A      3.026264   195A      3.075951  
     196A      3.118445   197A      3.134232   198A      3.157587  
     199A      3.241511   200A      3.381585   201A      3.454962  
     202A      3.542691   203A      3.733542   204A      3.790047  
     205A      3.827458   206A      3.854274   207A      3.981514  
     208A      4.043192   209A      4.157452   210A      5.231859  
     211A      5.257954   212A      5.294104   213A      5.335752  
     214A      5.627577   215A      5.789323   216A      9.933075  
     217A      9.940767   218A      9.961578   219A     23.500348  
     220A     23.841259   221A     23.958852   222A     25.951092  
     223A     25.993613   224A     26.007340   225A     26.018817  
     226A     26.096292   227A     26.100525   228A     26.521313  
     229A     26.551756   230A     26.813049   231A     49.966269  
     232A     50.119977   233A    216.033121   234A    216.042921  
     235A    216.074832  

    Final Occupation by Irrep:
              A 
    DOCC [    45 ]

  Energy converged.

  @DF-RKS Final Energy: -1648.24360701060186

   => Energetics <=

    Nuclear Repulsion Energy =            679.4589385844423077
    One-Electron Energy =               -3623.4415664366993042
    Two-Electron Energy =                1352.8326683003306243
    DFT Exchange-Correlation Energy =     -57.0936474586753775
    Empirical Dispersion Energy =           0.0000000000000000
    VV10 Nonlocal Energy =                  0.0000000000000000
    Total Energy =                      -1648.2436070106016359



Properties will be evaluated at   0.000000,   0.000000,   0.000000 [a0]

Properties computed using the SCF density matrix

  Nuclear Dipole Moment: [e a0]
     X:     3.9816      Y:     8.4900      Z:   -11.8281

  Electronic Dipole Moment: [e a0]
     X:    -2.8135      Y:    -7.2443      Z:    11.2145

  Dipole Moment: [e a0]
     X:     1.1681      Y:     1.2457      Z:    -0.6137     Total:     1.8146

  Dipole Moment: [D]
     X:     2.9689      Y:     3.1663      Z:    -1.5598     Total:     4.6122


*** tstop() called on localhost.localdomain at Thu Jan 17 16:43:38 2019
Module time:
	user time   =     271.29 seconds =       4.52 minutes
	system time =       5.80 seconds =       0.10 minutes
	total time  =         19 seconds =       0.32 minutes
Total time:
	user time   =    1358.05 seconds =      22.63 minutes
	system time =      29.02 seconds =       0.48 minutes
	total time  =         95 seconds =       1.58 minutes

*** tstart() called on localhost.localdomain
*** at Thu Jan 17 16:43:38 2019


         ------------------------------------------------------------
                                   SCF GRAD                          
                          Rob Parrish, Justin Turney,                
                       Andy Simmonett, and Alex Sokolov              
         ------------------------------------------------------------

  ==> Geometry <==

    Molecular point group: c1
    Full point group: C1

    Geometry (in Angstrom), charge = 0, multiplicity = 1:

       Center              X                  Y                   Z               Mass       
    ------------   -----------------  -----------------  -----------------  -----------------
         C            0.040730912894    -0.060256922225    -1.173583136161    12.000000000000
         O           -1.015901084793    -0.278552070941    -1.886198656096    15.994914619560
         CL           1.423691859982     0.381006125742     1.119498919524    34.968852682000
         CL          -1.487964685905     0.325366405443     1.062538210573    34.968852682000
         H            0.777167934252     3.176203066563    -2.228542933934     1.007825032070
         C            1.086335837284     2.157687750403    -2.004463016361    12.000000000000
         H            1.317291100502     1.616748924933    -2.925149594499     1.007825032070
         H            1.946928341421     2.167175234236    -1.338309797212     1.007825032070
[...]

  Vibration                       16                  17                  18          
  Freq [cm^-1]                 327.5992            372.5153            438.3109       
  Irrep                           A                   A                   A           
  Reduced mass [u]              8.1330              8.8558             20.8098        
  Force const [mDyne/A]         0.5143              0.7240              2.3555        
  Turning point v=0 [a0]        0.2126              0.1910              0.1149        
  RMS dev v=0 [a0 u^1/2]        0.4287              0.4020              0.3706        
  Char temp [K]                471.3416            535.9658            630.6309       
  ----------------------------------------------------------------------------------
      1   C               -0.06  0.13 -0.14   -0.05 -0.15 -0.21   -0.20 -0.09 -0.13   
      2   O               -0.08  0.09 -0.13   -0.11  0.00 -0.21   -0.10  0.17 -0.42   
      3   CL              -0.00  0.07  0.14    0.05 -0.04  0.11    0.42  0.22  0.22   
      4   CL               0.23 -0.13 -0.08    0.02 -0.09  0.04   -0.25  0.12  0.05   
      5   H                0.33 -0.11 -0.13   -0.45 -0.13  0.09   -0.15 -0.01  0.06   
      6   C                0.00 -0.16  0.05   -0.09 -0.03  0.05   -0.05  0.01 -0.01   
      7   H                0.04 -0.34  0.17   -0.04  0.04  0.03    0.01  0.09 -0.05   
      8   H               -0.12 -0.32  0.22   -0.04  0.23 -0.02   -0.07  0.04  0.01   
      9   O               -0.24  0.14 -0.06    0.15 -0.30  0.14   -0.02 -0.10 -0.08   
     10   H               -0.13  0.13 -0.14   -0.05  0.15  0.23    0.01  0.14 -0.18   
     11   C                0.13 -0.03 -0.12    0.02  0.09 -0.12   -0.04 -0.04  0.13   
     12   CL              -0.12 -0.02  0.10   -0.02  0.30 -0.02   -0.00 -0.32 -0.03   
     13   H               -0.05  0.31 -0.26   -0.13 -0.41 -0.21   -0.23 -0.28 -0.03   

  Vibration                       19                  20                  21          
  Freq [cm^-1]                 639.7487            707.8643            757.7828       
  Irrep                           A                   A                   A           
  Reduced mass [u]              5.6793              4.1413              7.7671        
  Force const [mDyne/A]         1.3695              1.2226              2.6278        
  Turning point v=0 [a0]        0.1820              0.2027              0.1430        
  RMS dev v=0 [a0 u^1/2]        0.3068              0.2916              0.2819        
  Char temp [K]                920.4545           1018.4576           1090.2791       
  ----------------------------------------------------------------------------------
      1   C               -0.20 -0.25  0.30   -0.06  0.31  0.11    0.23 -0.28 -0.02   
      2   O                0.02  0.07 -0.14    0.06  0.10  0.00    0.13  0.39  0.10   
      3   CL               0.01 -0.00 -0.01   -0.01 -0.01 -0.02   -0.03 -0.01 -0.02   
      4   CL               0.11 -0.04 -0.08    0.05 -0.02 -0.04   -0.05  0.02  0.03   
      5   H                0.05  0.06 -0.02   -0.37 -0.11  0.23    0.02 -0.07  0.11   
      6   C               -0.01  0.04 -0.02   -0.06 -0.06  0.01   -0.22 -0.15  0.10   
      7   H               -0.03  0.06 -0.04    0.02  0.10 -0.06   -0.00 -0.06  0.09   
      8   H                0.05  0.04 -0.08   -0.12  0.02  0.07   -0.34 -0.27  0.26   
      9   O               -0.02  0.09 -0.02    0.03 -0.26 -0.10   -0.10 -0.06 -0.21   
     10   H                0.21 -0.31 -0.26    0.11  0.58 -0.10    0.10  0.11 -0.09   
     11   C               -0.16 -0.02  0.27   -0.09  0.05  0.10    0.21 -0.09  0.06   
     12   CL               0.00  0.07 -0.03    0.00 -0.02  0.01   -0.01  0.04 -0.01   
     13   H               -0.19 -0.38  0.48    0.02  0.23  0.34    0.19 -0.35 -0.13   

  Vibration                       22                  23                  24          
  Freq [cm^-1]                 825.1297            867.6857           1026.4810       
  Irrep                           A                   A                   A           
  Reduced mass [u]             10.9692              9.6849              2.0069        
  Force const [mDyne/A]         4.4002              4.2961              1.2459        
  Turning point v=0 [a0]        0.1153              0.1197              0.2418        
  RMS dev v=0 [a0 u^1/2]        0.2701              0.2634              0.2422        
  Char temp [K]               1187.1761           1248.4047           1476.8753       
  ----------------------------------------------------------------------------------
      1   C               -0.03 -0.08 -0.03   -0.17  0.14  0.08    0.08  0.01 -0.12   
      2   O               -0.02 -0.02 -0.07   -0.07 -0.08 -0.16   -0.00  0.00 -0.01   
      3   CL              -0.07 -0.06 -0.04   -0.07 -0.02 -0.04   -0.00 -0.00 -0.01   
      4   CL               0.01 -0.03 -0.01   -0.07  0.03  0.01    0.01 -0.01 -0.01   
      5   H                0.02 -0.01  0.00   -0.08  0.01  0.02    0.28  0.13 -0.05   
      6   C               -0.04 -0.02  0.04    0.10  0.05 -0.05    0.06  0.06 -0.08   
      7   H               -0.04 -0.05  0.05    0.06  0.08 -0.07    0.23  0.01 -0.00   
      8   H               -0.01 -0.02  0.01    0.12  0.12 -0.09   -0.16 -0.16  0.20   
      9   O                0.02  0.01  0.02   -0.00 -0.04  0.03   -0.06 -0.04  0.02   
     10   H               -0.04 -0.05  0.07    0.03  0.11 -0.10   -0.53  0.13  0.58   
     11   C                0.31  0.82  0.17    0.65 -0.30  0.32   -0.08 -0.02  0.20   
     12   CL              -0.01 -0.14  0.01   -0.02  0.06 -0.01    0.00  0.01 -0.01   
     13   H               -0.13 -0.36 -0.03   -0.20  0.33 -0.18    0.06 -0.14 -0.04   

  Vibration                       25                  26                  27          
  Freq [cm^-1]                1090.3422           1138.0795           1186.3388       
  Irrep                           A                   A                   A           
  Reduced mass [u]              4.2853              2.1494              1.3352        
  Force const [mDyne/A]         3.0016              1.6403              1.1071        
  Turning point v=0 [a0]        0.1605              0.2219              0.2757        
  RMS dev v=0 [a0 u^1/2]        0.2350              0.2300              0.2253        
  Char temp [K]               1568.7573           1637.4406           1706.8747       
  ----------------------------------------------------------------------------------
      1   C                0.08  0.05 -0.22   -0.07  0.03  0.07   -0.02  0.06  0.02   
      2   O               -0.07 -0.07 -0.00    0.01 -0.05 -0.03    0.01 -0.02 -0.00   
      3   CL              -0.00 -0.00 -0.01    0.00  0.00  0.00   -0.00  0.00  0.00   
      4   CL               0.01 -0.01 -0.01   -0.00  0.00  0.00   -0.00  0.00 -0.00   
      5   H               -0.20 -0.15 -0.01    0.07  0.04  0.22    0.41  0.15 -0.39   
      6   C               -0.15 -0.10  0.16   -0.15 -0.09 -0.00   -0.06  0.10  0.06   
      7   H               -0.33 -0.11  0.10    0.33  0.14 -0.02   -0.36 -0.41  0.29   
      8   H                0.12  0.09 -0.18   -0.41 -0.15  0.35    0.07 -0.25 -0.10   
      9   O                0.17  0.13 -0.07    0.16  0.11 -0.06    0.04 -0.04 -0.04   
     10   H                0.31 -0.12 -0.33   -0.35  0.00  0.51   -0.03  0.06  0.02   
     11   C               -0.11 -0.03  0.29    0.03 -0.02 -0.06    0.01 -0.02 -0.02   
     12   CL               0.00  0.01 -0.01   -0.00 -0.00  0.00   -0.00 -0.00  0.00   
     13   H                0.11  0.33 -0.37   -0.11 -0.11  0.11   -0.14 -0.38  0.05   

  Vibration                       28                  29                  30          
  Freq [cm^-1]                1237.3847           1266.1426           1357.4381       
  Irrep                           A                   A                   A           
  Reduced mass [u]              1.2912              1.2556              1.3407        
  Force const [mDyne/A]         1.1648              1.1860              1.4555        
  Turning point v=0 [a0]        0.2745              0.2752              0.2572        
  RMS dev v=0 [a0 u^1/2]        0.2206              0.2180              0.2106        
  Char temp [K]               1780.3184           1821.6946           1953.0482       
  ----------------------------------------------------------------------------------
      1   C                0.02 -0.05  0.03   -0.02 -0.06  0.03    0.10  0.03 -0.03   
      2   O               -0.06  0.01 -0.02   -0.01  0.01 -0.02   -0.10 -0.02 -0.03   
      3   CL               0.00 -0.00  0.00    0.00  0.00  0.00   -0.00 -0.00 -0.00   
      4   CL              -0.00 -0.00  0.00   -0.00  0.00  0.00   -0.00  0.00  0.00   
      5   H                0.37  0.17 -0.10   -0.11 -0.09 -0.12   -0.09 -0.02  0.09   
      6   C               -0.06  0.05 -0.05    0.04 -0.00  0.08    0.01 -0.01 -0.01   
      7   H                0.17 -0.08  0.08   -0.29 -0.05  0.02   -0.04 -0.02 -0.01   
      8   H               -0.21 -0.24  0.15    0.29  0.16 -0.23   -0.05  0.02  0.06   
      9   O                0.04 -0.05  0.03    0.00 -0.00 -0.08   -0.01  0.04  0.01   
     10   H                0.20 -0.11 -0.14   -0.41  0.06  0.44    0.11  0.09 -0.10   
     11   C                0.00  0.02 -0.00    0.01  0.01 -0.02    0.03 -0.02 -0.01   
     12   CL              -0.00 -0.00 -0.00   -0.00  0.00 -0.00   -0.00  0.00  0.00   
     13   H                0.28  0.69  0.12    0.23  0.46  0.26    0.33 -0.34  0.83   

  Vibration                       31                  32                  33          
  Freq [cm^-1]                1462.7419           1491.4794           1503.6534       
  Irrep                           A                   A                   A           
  Reduced mass [u]              1.4093              1.5569              1.1683        
  Force const [mDyne/A]         1.7766              2.0405              1.5563        
  Turning point v=0 [a0]        0.2417              0.2277              0.2618        
  RMS dev v=0 [a0 u^1/2]        0.2029              0.2009              0.2001        
  Char temp [K]               2104.5567           2145.9035           2163.4191       
  ----------------------------------------------------------------------------------
      1   C               -0.09  0.01 -0.10    0.13  0.02  0.12    0.07  0.00  0.06   
      2   O                0.05  0.01  0.05   -0.07 -0.02 -0.06   -0.04 -0.01 -0.03   
      3   CL               0.00  0.00  0.00   -0.00 -0.00 -0.00   -0.00 -0.00 -0.00   
      4   CL               0.00  0.00 -0.00   -0.00 -0.00  0.00   -0.00 -0.00  0.00   
      5   H                0.50  0.11 -0.09    0.48  0.04 -0.27    0.11  0.17  0.59   
      6   C               -0.08 -0.05  0.03   -0.01 -0.06  0.03   -0.03 -0.00 -0.03   
      7   H                0.41  0.29 -0.05   -0.21  0.40 -0.28    0.26 -0.43  0.31   
      8   H                0.26  0.33 -0.39   -0.06  0.47  0.08    0.21  0.26 -0.32   
      9   O               -0.01 -0.02  0.02   -0.02 -0.01 -0.00   -0.02  0.00 -0.02   
     10   H               -0.03 -0.06 -0.09    0.04  0.20  0.04   -0.03  0.11  0.05   
     11   C                0.01 -0.01  0.01   -0.01  0.00 -0.01   -0.01  0.00 -0.00   
     12   CL              -0.00  0.00  0.00    0.00 -0.00  0.00    0.00 -0.00  0.00   
     13   H                0.05 -0.04  0.31   -0.06 -0.08 -0.28   -0.02 -0.02 -0.16   

  Vibration                       34                  35                  36          
  Freq [cm^-1]                1510.0301           2208.3489           3007.9946       
  Irrep                           A                   A                   A           
  Reduced mass [u]              1.1821              1.0602              1.0864        
  Force const [mDyne/A]         1.5880              3.0464              5.7916        
  Turning point v=0 [a0]        0.2597              0.2268              0.1919        
  RMS dev v=0 [a0 u^1/2]        0.1997              0.1651              0.1415        
  Char temp [K]               2172.5938           3177.3175           4327.8279       
  ----------------------------------------------------------------------------------
      1   C                0.07  0.01  0.06   -0.01  0.04 -0.01   -0.08  0.02  0.03   
      2   O               -0.04 -0.01 -0.03   -0.01  0.01 -0.01   -0.00 -0.00 -0.00   
      3   CL              -0.00 -0.00 -0.00   -0.00 -0.00 -0.00    0.00  0.00  0.00   
      4   CL              -0.00 -0.00  0.00    0.00  0.00 -0.00    0.00 -0.00 -0.00   
      5   H               -0.25 -0.14 -0.33    0.01 -0.01  0.01    0.00 -0.00 -0.00   
      6   C               -0.04  0.02  0.04    0.00 -0.00  0.01    0.00 -0.00 -0.00   
      7   H                0.52  0.24  0.03    0.00  0.01  0.01   -0.01  0.02  0.02   
      8   H                0.26 -0.50 -0.34    0.03  0.02 -0.03   -0.01  0.00 -0.01   
      9   O               -0.01  0.01  0.00   -0.03 -0.01 -0.03    0.00  0.00  0.00   
     10   H                0.01  0.11  0.04    0.66 -0.38  0.64   -0.00 -0.02  0.01   
     11   C               -0.01  0.00 -0.01   -0.00 -0.00 -0.00   -0.00  0.00  0.00   
     12   CL               0.00 -0.00  0.00   -0.00 -0.00  0.00    0.00 -0.00  0.00   
     13   H               -0.01 -0.06 -0.10   -0.03 -0.02  0.01    0.89 -0.27 -0.35   

  Vibration                       37                  38                  39          
  Freq [cm^-1]                3076.8017           3168.3527           3195.6708       
  Irrep                           A                   A                   A           
  Reduced mass [u]              1.0339              1.1023              1.1083        
  Force const [mDyne/A]         5.7666              6.5196              6.6686        
  Turning point v=0 [a0]        0.1945              0.1857              0.1844        
  RMS dev v=0 [a0 u^1/2]        0.1399              0.1378              0.1373        
  Char temp [K]               4426.8258           4558.5472           4597.8518       
  ----------------------------------------------------------------------------------
      1   C                0.00 -0.00 -0.00    0.00  0.00 -0.00    0.00 -0.00 -0.00   
      2   O                0.00  0.00  0.00    0.00  0.00  0.00   -0.00 -0.00  0.00   
      3   CL              -0.00 -0.00  0.00    0.00  0.00 -0.00   -0.00 -0.00  0.00   
      4   CL              -0.00  0.00  0.00   -0.00  0.00  0.00   -0.00  0.00  0.00   
      5   H                0.12 -0.41  0.08   -0.15  0.46 -0.12   -0.22  0.71 -0.15   
      6   C                0.03  0.00 -0.04   -0.02 -0.06 -0.06    0.06 -0.06  0.04   
      7   H               -0.16  0.39  0.65   -0.12  0.31  0.51    0.00  0.01  0.03   
      8   H               -0.36 -0.01 -0.29    0.48 -0.01  0.37   -0.51 -0.01 -0.41   
      9   O                0.00  0.00 -0.00   -0.00 -0.00  0.00   -0.00  0.00 -0.00   
     10   H               -0.01 -0.00 -0.01    0.00  0.00 -0.00   -0.00 -0.00  0.00   
     11   C                0.00  0.00  0.00   -0.00 -0.00  0.00    0.00  0.00 -0.00   
     12   CL              -0.00  0.00 -0.00    0.00  0.00  0.00   -0.00  0.00 -0.00   
     13   H               -0.03  0.01  0.01   -0.01  0.00  0.00   -0.01  0.00  0.00   

  ==> Thermochemistry Components <==

  Entropy, S
    Electronic S            0.000 [cal/(mol K)]        0.000 [J/(mol K)]       0.00000000 [mEh/K] (multiplicity = 1)
    Translational S        41.436 [cal/(mol K)]      173.367 [J/(mol K)]       0.06603206 [mEh/K] (mol. weight = 177.9355 [u], P = 101325.00 [Pa])
    Rotational S           29.972 [cal/(mol K)]      125.402 [J/(mol K)]       0.04776293 [mEh/K] (symmetry no. = 1)
    Vibrational S          24.470 [cal/(mol K)]      102.381 [J/(mol K)]       0.03899497 [mEh/K]
  Total S                  95.877 [cal/(mol K)]      401.150 [J/(mol K)]       0.15278996 [mEh/K]
  Correction S              0.000 [cal/(mol K)]        0.000 [J/(mol K)]       0.00000000 [mEh/K]

  Constant volume heat capacity, Cv
    Electronic Cv           0.000 [cal/(mol K)]        0.000 [J/(mol K)]       0.00000000 [mEh/K]
    Translational Cv        2.981 [cal/(mol K)]       12.472 [J/(mol K)]       0.00475022 [mEh/K]
    Rotational Cv           2.981 [cal/(mol K)]       12.472 [J/(mol K)]       0.00475022 [mEh/K]
    Vibrational Cv         24.788 [cal/(mol K)]      103.711 [J/(mol K)]       0.03950157 [mEh/K]
  Total Cv                 30.749 [cal/(mol K)]      128.655 [J/(mol K)]       0.04900202 [mEh/K]
  Correction Cv             0.000 [cal/(mol K)]        0.000 [J/(mol K)]       0.00000000 [mEh/K]

  Constant pressure heat capacity, Cp
    Electronic Cp           0.000 [cal/(mol K)]        0.000 [J/(mol K)]       0.00000000 [mEh/K]
    Translational Cp        4.968 [cal/(mol K)]       20.786 [J/(mol K)]       0.00791704 [mEh/K]
    Rotational Cp           2.981 [cal/(mol K)]       12.472 [J/(mol K)]       0.00475022 [mEh/K]
    Vibrational Cp         24.788 [cal/(mol K)]      103.711 [J/(mol K)]       0.03950157 [mEh/K]
  Total Cp                 32.736 [cal/(mol K)]      136.969 [J/(mol K)]       0.05216883 [mEh/K]
  Correction Cp             0.000 [cal/(mol K)]        0.000 [J/(mol K)]       0.00000000 [mEh/K]

  ==> Thermochemistry Energy Analysis <==

  Raw electronic energy, E0
  Total E0, Electronic energy at well bottom at 0 [K]                -1648.24360758 [Eh]

  Zero-point energy, ZPE_vib = Sum_i nu_i / 2
    Electronic ZPE          0.000 [kcal/mol]        0.000 [kJ/mol]       0.00000000 [Eh]
    Translational ZPE       0.000 [kcal/mol]        0.000 [kJ/mol]       0.00000000 [Eh]
    Rotational ZPE          0.000 [kcal/mol]        0.000 [kJ/mol]       0.00000000 [Eh]
    Vibrational ZPE        50.559 [kcal/mol]      211.537 [kJ/mol]       0.08057019 [Eh]       17683.110 [cm^-1]
  Correction ZPE           50.559 [kcal/mol]      211.537 [kJ/mol]       0.08057019 [Eh]       17683.110 [cm^-1]
  Total ZPE, Electronic energy at 0 [K]                              -1648.16303739 [Eh]

  Thermal Energy, E (includes ZPE)
    Electronic E            0.000 [kcal/mol]        0.000 [kJ/mol]       0.00000000 [Eh]
    Translational E         0.889 [kcal/mol]        3.718 [kJ/mol]       0.00141628 [Eh]
    Rotational E            0.889 [kcal/mol]        3.718 [kJ/mol]       0.00141628 [Eh]
    Vibrational E          54.535 [kcal/mol]      228.176 [kJ/mol]       0.08690770 [Eh]
  Correction E             56.313 [kcal/mol]      235.613 [kJ/mol]       0.08974026 [Eh]
  Total E, Electronic energy at  298.15 [K]                          -1648.15386732 [Eh]

  Enthalpy, H_trans = E_trans + k_B * T
    Electronic H            0.000 [kcal/mol]        0.000 [kJ/mol]       0.00000000 [Eh]
    Translational H         1.481 [kcal/mol]        6.197 [kJ/mol]       0.00236046 [Eh]
    Rotational H            0.889 [kcal/mol]        3.718 [kJ/mol]       0.00141628 [Eh]
    Vibrational H          54.535 [kcal/mol]      228.176 [kJ/mol]       0.08690770 [Eh]
  Correction H             56.905 [kcal/mol]      238.092 [kJ/mol]       0.09068444 [Eh]
  Total H, Enthalpy at  298.15 [K]                                   -1648.15292314 [Eh]

  Gibbs free energy, G = H - T * S
    Electronic G            0.000 [kcal/mol]        0.000 [kJ/mol]       0.00000000 [Eh]
    Translational G       -10.873 [kcal/mol]      -45.492 [kJ/mol]      -0.01732700 [Eh]
    Rotational G           -8.047 [kcal/mol]      -33.670 [kJ/mol]      -0.01282424 [Eh]
    Vibrational G          47.240 [kcal/mol]      197.651 [kJ/mol]       0.07528135 [Eh]
  Correction G             28.320 [kcal/mol]      118.489 [kJ/mol]       0.04513012 [Eh]
  Total G, Free enthalpy at  298.15 [K]                              -1648.19847746 [Eh]

    Psi4 stopped on: Thursday, 17 January 2019 05:15PM
    Psi4 wall time for execution: 0:33:45.67

*** Psi4 exiting successfully. Buy a developer a beer!
