[Molden Format]

[FREQ]
       -1405.9174332099
          68.9320273768
          89.8821563905
         159.5838690663
         196.0741479750
         204.2180089525
         240.0197457345
         265.9926275710
         277.6130068882
         327.5991713553
         372.5152964983
         438.3109393962
         639.7486935329
         707.8642888768
         757.7828330034
         825.1296844880
         867.6857457230
        1026.4809643761
        1090.3422244578
        1138.0795294710
        1186.3387547434
        1237.3847139888
        1266.1426224742
        1357.4381141344
        1462.7418705229
        1491.4793703986
        1503.6533614497
        1510.0300845968
        2208.3489015320
        3007.9945947695
        3076.8016574289
        3168.3527218624
        3195.6708171256

[FR-COORD]
C          0.0769702705       -0.1124983116       -2.2177482155
O         -1.9197679458       -0.5265639261       -3.5643914611
CL         2.6903842129        0.7199384291        2.1155363275
CL        -2.8118490764        0.6147937734        2.0078880206
H          1.4686443623        6.0019626758       -4.2114590086
C          2.0528857271        4.0772564009       -3.7879678393
H          2.4893309366        3.0549935403       -5.5277910502
H          3.6791675034        4.0952111405       -2.5291180034
O          0.0035623370        2.8758699081       -2.4849424479
H         -1.6260069626        2.0688092300       -3.6115282550
C         -0.0362535822       -0.6370035067        0.6623015505
CL         0.0499175247       -3.9699806016        1.0187927981
H          1.9547751220       -0.6930486303       -2.9109451578

[FR-NORM-COORD]
vibration 1
          -0.0568749279       -0.0815555400       -0.0317676760
           0.0252498172       -0.0476823545        0.0205503554
           0.0003501992        0.0005611795       -0.0001787226
          -0.0002654504        0.0001505236        0.0004365711
           0.0304740223        0.0188150653       -0.0172497503
           0.0011051432        0.0135091473       -0.0112459857
          -0.0061514878       -0.0149777515        0.0087839597
          -0.0327200663       -0.0206430295        0.0230425862
          -0.0095241786        0.0402327591       -0.0033598899
           0.4214768354        0.8782963936        0.1666538188
          -0.0027779080       -0.0014169320        0.0023118602
           0.0004516826        0.0002053838        0.0006258772
           0.0158480029        0.0520072350       -0.0000893324
vibration 2
          -0.0697546843        0.0393101387        0.0155255450
          -0.1346781479        0.1753819825        0.0661273370
          -0.0647543700        0.0703093196        0.0258869110
          -0.0590144215       -0.1013951516        0.0430543207
           0.3867704272       -0.1135625941       -0.0622938716
           0.1606433011       -0.2049221834       -0.1675095758
          -0.1725864539       -0.2296198774       -0.2366251122
           0.3021046384       -0.4599361912       -0.3461716393
           0.1344427057        0.0407122529        0.0221915654
           0.0241898351        0.1577926478        0.0976649817
          -0.0259973620        0.0139519790        0.0130361947
           0.0896999829        0.0053842408       -0.0448870884
          -0.1272936623       -0.0866789241       -0.0344462507
vibration 3
          -0.0865398679       -0.0436502552       -0.0318835595
          -0.1152093251        0.0156727395       -0.0040349057
          -0.0090907171        0.0579135333       -0.1228623766
          -0.0147352408       -0.0256415534        0.0195033027
           0.1631732189       -0.0367180155        0.0851819866
           0.1784102504        0.0051900741        0.2551968158
           0.5499460111       -0.0285574076        0.3688380475
          -0.0526729518        0.1243085166        0.5506791697
           0.0095847828       -0.0476549611       -0.0647805911
           0.0445226413       -0.0001901540       -0.1479995105
          -0.0342523722       -0.0096491613       -0.0256808817
           0.0353360913        0.0002434871        0.0439928733
          -0.1140496311       -0.1066325436       -0.0578731142
vibration 4
           0.0033215582       -0.0209268199       -0.0298775589
          -0.0286675760        0.0989219639       -0.0219359513
           0.0237887837       -0.0115223416       -0.0841308579
          -0.0200628665       -0.0102886454       -0.1221076878
           0.0587670039        0.1853895160        0.5119304489
          -0.0541543605        0.0491580378        0.0496242276
          -0.4473465324        0.3352248553       -0.2175190264
           0.1601643253       -0.3406692078       -0.2211894996
           0.0439814952        0.0038010801        0.1581381039
          -0.0396808480        0.0819204082        0.1973055103
           0.0110623994       -0.0466285054       -0.0294417583
           0.0112862494       -0.0252759443        0.1417021275
          -0.0222899037       -0.0393099778       -0.0774743084
vibration 5
          -0.0122765248        0.0069538509        0.0043723528
          -0.0676831129        0.0858845644        0.0617828475
           0.0166103335       -0.0472907200        0.0171737925
          -0.0176237810       -0.0117888175       -0.0715960507
          -0.2846739509       -0.1383983476       -0.5532795033
          -0.0246240158        0.0460532508       -0.0695514806
           0.2801304407       -0.2696784545        0.1917073100
          -0.1329647073        0.5754732091        0.0629947459
           0.0430055415        0.0326000992        0.0203836137
          -0.0169929777        0.0493846573        0.0776935887
           0.0147376807       -0.0137311588        0.0012415507
           0.0256598263       -0.0140174908        0.0466152845
          -0.0451223660       -0.0285977811       -0.0509824752
vibration 6
           0.0949990402        0.0579974024        0.0110283401
           0.2588434219        0.0810545274       -0.2329899547
           0.0084412908        0.0615787642       -0.1673988856
          -0.0422327814       -0.1475585309        0.1657923296
          -0.1621512076       -0.1538261993       -0.5224116603
          -0.0070207050       -0.0145676308       -0.1017930563
           0.0813205256       -0.3480729247        0.1143789267
          -0.0135725943        0.3821127272       -0.0995556184
           0.0682640127        0.0892785306        0.1197204635
           0.1091393916        0.0466171575        0.0434649687
          -0.0535855669       -0.0134674574        0.0082882615
          -0.1330354793       -0.0036051536        0.0901238383
           0.1727756244        0.1214627334        0.1725107569
vibration 7
          -0.0043850094       -0.0050159080        0.0515309252
           0.0448889250       -0.0219103774       -0.0212126873
          -0.0089133592        0.0609580454       -0.0428917616
           0.0165903713        0.1070585264       -0.0611452893
          -0.0514583036       -0.3462839147       -0.2666801555
          -0.0644905647       -0.2639242251        0.1171850609
          -0.0412183234       -0.6036816840        0.3215926546
          -0.0885149630       -0.0394026523        0.1440093998
          -0.0724346052       -0.0387999492        0.2936459295
          -0.0765675874        0.0467334007        0.2668432427
          -0.0037998409       -0.0200212131        0.0087337421
           0.0366887929       -0.0157769038       -0.0967324059
           0.0208871930        0.0644527746        0.0638251702
vibration 8
           0.0822319553       -0.1644782314        0.0089590276
          -0.0761201098       -0.0098241698        0.1956804937
          -0.0780089681        0.2585109523        0.0038334619
           0.1487149814       -0.0339461973       -0.0247356704
          -0.3892456234        0.0828830634        0.0560558998
          -0.0305266462        0.1701214394       -0.0312438309
           0.0191854466        0.2948463563       -0.0918214189
           0.0537166596        0.4224156671       -0.1433208227
           0.2298324855       -0.1517323115        0.0705796542
           0.0421424919       -0.0495009134        0.2462690162
           0.0977368120       -0.0860661936        0.0009072021
          -0.1841262294       -0.1355732151       -0.0924367117
          -0.0093273058       -0.3168130138       -0.1058254086
vibration 9
           0.0759568392        0.1012047856        0.2036349492
           0.0128449034       -0.1721453537        0.4028916388
           0.3664129258        0.0785468166       -0.0531469672
          -0.2041733487       -0.2499689080       -0.1823904194
           0.2713281521       -0.0366300490        0.0946766664
           0.0487416157       -0.1072722417        0.0709646952
           0.0097102133       -0.1220848152        0.0710771263
           0.0044713717       -0.3122535328        0.1310075582
          -0.0929201920        0.0441085958       -0.0086553146
          -0.0296063862       -0.0869452318        0.0376387849
           0.1238631414        0.1534719942        0.1277689599
          -0.2206003949        0.1897997388       -0.0962739436
           0.0803346641        0.1971737407        0.1308214143
vibration 10
          -0.0618955121        0.1296388927       -0.1432930751
          -0.0752576088        0.0858275635       -0.1258895047
          -0.0009712993        0.0745049261        0.1430640831
           0.2345335504       -0.1305802347       -0.0842305168
           0.3253405110       -0.1059198337       -0.1289112407
           0.0048280499       -0.1605618200        0.0532222156
           0.0413801842       -0.3403542197        0.1675069583
          -0.1188591499       -0.3194925423        0.2156814344
          -0.2377606184        0.1425340649       -0.0561106940
          -0.1333467367        0.1271491563       -0.1403340687
           0.1269997090       -0.0305523340       -0.1187170590
          -0.1162856031       -0.0177002425        0.1003678872
          -0.0485479703        0.3061438189       -0.2633336111
vibration 11
          -0.0514771244       -0.1486256027       -0.2088002537
          -0.1141664186        0.0043540443       -0.2116491717
           0.0457093402       -0.0383749073        0.1069001905
           0.0190923839       -0.0890561945        0.0393953748
          -0.4460978482       -0.1262413139        0.0944405357
          -0.0900002383       -0.0268017805        0.0522268782
          -0.0395267033        0.0416762944        0.0267208683
          -0.0358357894        0.2326004985       -0.0246775678
           0.1473371124       -0.3039646861        0.1381125960
          -0.0491890350        0.1459961719        0.2347667746
           0.0217425563        0.0928332432       -0.1195502856
          -0.0186167369        0.2961752420       -0.0214402215
          -0.1326282085       -0.4105326894       -0.2085635809
vibration 12
          -0.1995525616       -0.0940021073       -0.1274657498
          -0.1022646096        0.1657076614       -0.4238195308
           0.4193422946        0.2159667956        0.2198425880
          -0.2483529912        0.1175351193        0.0487967780
          -0.1499312625       -0.0063321959        0.0630985739
          -0.0492245520        0.0069325092       -0.0094363185
           0.0062460565        0.0933138327       -0.0462348856
          -0.0663224987        0.0439560267        0.0092782003
          -0.0193310339       -0.1020377456       -0.0813580002
           0.0112809735        0.1383774338       -0.1802911285
          -0.0428703939       -0.0393251261        0.1270036252
          -0.0030308088       -0.3189282339       -0.0287207850
          -0.2265790683       -0.2805105701       -0.0349954180
vibration 13
          -0.2006076317       -0.2530366614        0.3025317746
           0.0179347698        0.0694276639       -0.1388185752
           0.0071036022       -0.0004413368       -0.0061070693
           0.1122099921       -0.0425801010       -0.0818130552
           0.0459601914        0.0611691512       -0.0217791497
          -0.0069469278        0.0390247022       -0.0160633654
          -0.0334242211        0.0649122119       -0.0439596137
           0.0478202192        0.0374193613       -0.0823691348
          -0.0186800663        0.0898588679       -0.0203015491
           0.2061748294       -0.3129556905       -0.2592321541
          -0.1591152449       -0.0200947140        0.2720573355
           0.0046460509        0.0658784373       -0.0329667960
          -0.1898986356       -0.3841470286        0.4768767076
vibration 14
          -0.0569201623        0.3117873600        0.1139471008
           0.0572523209        0.0996390754        0.0046409213
          -0.0083706686       -0.0069421379       -0.0181359049
           0.0490621173       -0.0189808911       -0.0369869066
          -0.3681870863       -0.1125877146        0.2271767793
          -0.0634907102       -0.0612271017        0.0130964887
           0.0152233191        0.1033188867       -0.0555481720
          -0.1221418658        0.0181420842        0.0730155498
           0.0298488545       -0.2631640564       -0.0988813913
           0.1078318412        0.5775486376       -0.1001125297
          -0.0938915120        0.0454057909        0.0981021081
           0.0030879689       -0.0243737156        0.0069480267
           0.0175471569        0.2299846690        0.3418988891
vibration 15
           0.2300970155       -0.2839893229       -0.0206344736
           0.1346479916        0.3878281227        0.1041392987
          -0.0319745066       -0.0101334816       -0.0195909065
          -0.0512764513        0.0193776066        0.0283763936
           0.0171027577       -0.0693230407        0.1086832596
          -0.2229025050       -0.1495020648        0.0950815563
          -0.0037033001       -0.0637619308        0.0871132965
          -0.3422042615       -0.2673531444        0.2557769086
          -0.0992664869       -0.0601952593       -0.2074891817
           0.0985895041        0.1134543614       -0.0873773061
           0.2116200676       -0.0888404743        0.0606792121
          -0.0068895676        0.0384044370       -0.0147256142
           0.1909343497       -0.3467501373       -0.1267775199
vibration 16
          -0.0341903976       -0.0756477035       -0.0310421823
          -0.0185216516       -0.0188842095       -0.0724209947
          -0.0728563893       -0.0569460734       -0.0394937768
           0.0054549989       -0.0330360025       -0.0130368478
           0.0224223101       -0.0107778592        0.0020343076
          -0.0383519459       -0.0229665025        0.0402213637
          -0.0392577625       -0.0470062381        0.0518576504
          -0.0086513095       -0.0181643644        0.0066634777
           0.0204448385        0.0120462887        0.0239661763
          -0.0370308425       -0.0475289524        0.0732540837
           0.3080068166        0.8153937772        0.1729989868
          -0.0088349129       -0.1390109217        0.0091671722
          -0.1264426011       -0.3571223754       -0.0293639680
vibration 17
          -0.1720277112        0.1426172825        0.0829893561
          -0.0689220320       -0.0781200386       -0.1587579236
          -0.0729493156       -0.0174450536       -0.0391867944
          -0.0687773868        0.0320072330        0.0055188564
          -0.0802766194        0.0091223712        0.0202906312
           0.0978423118        0.0501142656       -0.0503602078
           0.0566273527        0.0836324550       -0.0735294836
           0.1210166054        0.1201683743       -0.0872662589
          -0.0040489959       -0.0389108919        0.0295543722
           0.0278005967        0.1083886477       -0.0955423921
           0.6501647767       -0.3010552388        0.3161892754
          -0.0203379182        0.0574857121       -0.0149807695
          -0.2019405146        0.3259750400       -0.1787386065
vibration 18
           0.0772080886        0.0078265723       -0.1197980506
          -0.0009016276        0.0018523952       -0.0090910868
          -0.0032053193       -0.0017600070       -0.0088606654
           0.0140678096       -0.0050469731       -0.0093660538
           0.2817712228        0.1320256755       -0.0548681160
           0.0566612641        0.0620858792       -0.0810263961
           0.2324416584        0.0135371979       -0.0005562383
          -0.1598846102       -0.1554269513        0.2021973544
          -0.0620728051       -0.0405538063        0.0183219110
          -0.5336335890        0.1343634429        0.5826129366
          -0.0767083567       -0.0158585599        0.2028899191
           0.0018475236        0.0064624582       -0.0064482245
           0.0571453436       -0.1419363174       -0.0443240111
vibration 19
           0.0847143413        0.0508398848       -0.2170732956
          -0.0748566547       -0.0684226323       -0.0015238650
          -0.0024679255       -0.0014499024       -0.0093997651
           0.0149350763       -0.0053656150       -0.0092931162
          -0.2014360418       -0.1511033605       -0.0054415638
          -0.1492122385       -0.1044062798        0.1587324445
          -0.3304873419       -0.1096883932        0.1014623778
           0.1164583148        0.0856237803       -0.1792751644
           0.1716617007        0.1281462097       -0.0693131305
           0.3050939706       -0.1222146992       -0.3266951546
          -0.1074992331       -0.0343812367        0.2920936144
           0.0022588019        0.0086098198       -0.0065912172
           0.1109936762        0.3344460152       -0.3717789959
vibration 20
          -0.0691836765        0.0333484676        0.0680332951
           0.0122558124       -0.0485137078       -0.0306718893
           0.0013671375        0.0013963139        0.0027792403
          -0.0026924608        0.0012840799        0.0008170245
           0.0741261116        0.0351601736        0.2244698206
          -0.1462918952       -0.0862330416       -0.0026789142
           0.3291864305        0.1430377779       -0.0215736207
          -0.4093658722       -0.1462559974        0.3496583918
           0.1587766746        0.1056775169       -0.0578797226
          -0.3486605328        0.0015438016        0.5073818076
           0.0319358930       -0.0231675978       -0.0630909246
          -0.0005850053       -0.0005965295        0.0024223874
          -0.1080369815       -0.1074812680        0.1096601036
vibration 21
          -0.0152270920        0.0555347965        0.0184090210
           0.0109778436       -0.0172475319       -0.0028623294
          -0.0002934179        0.0002760150        0.0001818344
          -0.0009955687        0.0010670318       -0.0001615902
           0.4130952124        0.1472764327       -0.3870690010
          -0.0635194553        0.1018202312        0.0624928825
          -0.3583122567       -0.4132585989        0.2894617277
           0.0674365373       -0.2523127627       -0.1027182724
           0.0432273767       -0.0351824787       -0.0377981586
          -0.0305845101        0.0603850725        0.0151238103
           0.0149660086       -0.0207320920       -0.0196255350
          -0.0003670021       -0.0001824223        0.0013150668
          -0.1350288070       -0.3770043098        0.0545742147
vibration 22
           0.0195989573       -0.0529354268        0.0257367628
          -0.0599064782        0.0125492972       -0.0212966490
           0.0002488961       -0.0004151305        0.0001909552
          -0.0005354233       -0.0001365105        0.0006336465
           0.3696174069        0.1696427212       -0.1030103734
          -0.0599084554        0.0508731088       -0.0479240319
           0.1671982179       -0.0834741763        0.0839077014
          -0.2064361060       -0.2413364595        0.1489440206
           0.0392813833       -0.0520176973        0.0325662939
           0.1965080836       -0.1062098873       -0.1353373156
           0.0007760499        0.0217052364       -0.0035576487
          -0.0000287337       -0.0004531831       -0.0004564333
           0.2821043305        0.6887498188        0.1204043824
vibration 23
          -0.0157324635       -0.0640194042        0.0273529564
          -0.0114845733        0.0099660112       -0.0170073971
           0.0007809564        0.0000623359        0.0010432325
          -0.0005606381        0.0000631956        0.0003330220
          -0.1118845466       -0.0907102262       -0.1200567350
           0.0377271003       -0.0020621316        0.0826213473
          -0.2860041850       -0.0459362817        0.0244635581
           0.2857850508        0.1595066125       -0.2338430670
           0.0044461562       -0.0013673880       -0.0755603860
          -0.4124959629        0.0635482841        0.4433499423
           0.0120458475        0.0085583121       -0.0211575548
          -0.0002184441        0.0000653823       -0.0002448985
           0.2309251904        0.4554201886        0.2584233295
vibration 24
           0.0982175382        0.0292693120       -0.0335820394
          -0.0992446760       -0.0195843146       -0.0264506195
          -0.0017902726       -0.0004582372       -0.0017533107
          -0.0017067276        0.0008646904        0.0001370217
          -0.0895235928       -0.0220754513        0.0860076702
           0.0064968929       -0.0123926437       -0.0077564725
          -0.0431047139       -0.0219843491       -0.0078961194
          -0.0519826930        0.0159117539        0.0632539742
          -0.0111705356        0.0361010277        0.0089201010
           0.1117444823        0.0865077896       -0.0958361069
           0.0326475942       -0.0174326689       -0.0055773425
          -0.0005526611        0.0003243961        0.0003828751
           0.3302024460       -0.3392302915        0.8341078626
vibration 25
          -0.0944722642        0.0109840119       -0.0980082962
           0.0537192904        0.0116239789        0.0450969256
           0.0005126426        0.0003491122        0.0012293379
           0.0004909037        0.0002605960       -0.0011477570
           0.5045212721        0.1086449729       -0.0917257943
          -0.0783733083       -0.0488318741        0.0303474260
           0.4066446330        0.2895061774       -0.0536148820
           0.2573975958        0.3261745267       -0.3940362206
          -0.0108417994       -0.0184192524        0.0213282881
          -0.0282338348       -0.0607061474       -0.0850130925
           0.0137635052       -0.0081365969        0.0051014393
          -0.0002778751        0.0003872688        0.0001121988
           0.0481574950       -0.0428369921        0.3083344295
vibration 26
           0.1310982522        0.0197684524        0.1168299065
          -0.0734901858       -0.0198224303       -0.0568476844
          -0.0005000468       -0.0004107496       -0.0017063133
          -0.0003907752       -0.0000304639        0.0010761755
           0.4830350323        0.0367001534       -0.2682266741
          -0.0126274337       -0.0647676513        0.0341489167
          -0.2073341075        0.4036043064       -0.2837948422
          -0.0612774133        0.4695333388        0.0783150577
          -0.0157471255       -0.0123209567       -0.0042538052
           0.0420128812        0.2039789571        0.0388429310
          -0.0142839272        0.0044494606       -0.0092381855
           0.0002160149       -0.0008615334        0.0004279111
          -0.0572969535       -0.0756572351       -0.2760762542
vibration 27
           0.0682697658        0.0013193521        0.0607514353
          -0.0362381759       -0.0093736787       -0.0292419961
          -0.0000558128       -0.0001259014       -0.0008049365
          -0.0001197630       -0.0000214196        0.0006115272
           0.1065702118        0.1703088605        0.5878339827
          -0.0340973335       -0.0010715809       -0.0343570718
           0.2637695566       -0.4303278584        0.3067889702
           0.2057686014        0.2567983030       -0.3183375843
          -0.0153227695        0.0024299067       -0.0165946596
          -0.0256134037        0.1119978517        0.0469023595
          -0.0096811253        0.0025770537       -0.0040716781
           0.0001594812       -0.0002548350        0.0001610963
          -0.0232407014       -0.0182554174       -0.1603979557
vibration 28
           0.0697192316        0.0097421308        0.0570765100
          -0.0393468592       -0.0102798713       -0.0297173259
          -0.0002746610       -0.0001916446       -0.0007556177
          -0.0002603815       -0.0000097793        0.0005774287
          -0.2542828790       -0.1406071853       -0.3267704858
          -0.0362413679        0.0201202495        0.0448435258
           0.5192429793        0.2422403217        0.0273504304
           0.2642643020       -0.5017636439       -0.3385700097
          -0.0135248577        0.0095852752        0.0011759625
           0.0096840608        0.1144905796        0.0421333023
          -0.0059316753        0.0017014130       -0.0055095420
           0.0001019210       -0.0004298820        0.0002428680
          -0.0127555288       -0.0572563660       -0.1013585075
vibration 29
          -0.0058487198        0.0381172328       -0.0108337052
          -0.0077382306        0.0111502079       -0.0080947250
          -0.0000849496       -0.0000805043       -0.0000691982
           0.0000283116        0.0000282490       -0.0000863520
           0.0105848285       -0.0063325956        0.0051823179
           0.0036528843       -0.0017404892        0.0058182962
           0.0017838279        0.0094469477        0.0119153207
           0.0253850093        0.0245612684       -0.0311281329
          -0.0326964432       -0.0129012382       -0.0282394383
           0.6621384291       -0.3823837086        0.6382414952
          -0.0001471745       -0.0011610725       -0.0000748277
          -0.0000127106       -0.0003153083        0.0002748967
          -0.0278604492       -0.0240552700        0.0089061062
vibration 30
          -0.0750634979        0.0233654543        0.0309068675
          -0.0003008670       -0.0002529968       -0.0014170031
           0.0002178433        0.0000389397        0.0000812934
           0.0001906612       -0.0000809914       -0.0001948497
           0.0045104797       -0.0031438483       -0.0014457897
           0.0012427858       -0.0008237174       -0.0011737293
          -0.0057969170        0.0169756543        0.0240650439
          -0.0144294324        0.0011035913       -0.0114261509
           0.0011136067        0.0004865410        0.0002159257
          -0.0037854935       -0.0184003673        0.0079345765
          -0.0017564311        0.0009116467        0.0000035335
           0.0000504684       -0.0001068383        0.0000069924
           0.8905615504       -0.2743308783       -0.3504376792
vibration 31
           0.0021584891       -0.0025857253       -0.0008395097
           0.0003581987        0.0004332790        0.0002224023
          -0.0000144626       -0.0000070752        0.0000138158
          -0.0000108803        0.0000085056        0.0000091218
           0.1245482085       -0.4050454641        0.0816381395
           0.0312499281        0.0012408226       -0.0370529481
          -0.1577113654        0.3888830616        0.6522007934
          -0.3569339241       -0.0075961020       -0.2850319566
           0.0016090095        0.0013726896       -0.0001118271
          -0.0105168746       -0.0028280426       -0.0098264082
           0.0000485527        0.0001041020        0.0000468286
          -0.0000101273        0.0000198061       -0.0000170911
          -0.0277427564        0.0119616678        0.0096830861
vibration 32
           0.0005695591        0.0001019697       -0.0002678059
           0.0001282814        0.0001787246        0.0000933825
           0.0000118612        0.0000132931       -0.0000299430
          -0.0000063049        0.0000040000        0.0000084559
          -0.1522206310        0.4631626275       -0.1152598004
          -0.0175384384       -0.0642854982       -0.0644546624
          -0.1244261328        0.3065407189        0.5113209110
           0.4818852719       -0.0104265343        0.3703479707
          -0.0001463036       -0.0001599680        0.0002487070
           0.0028660358        0.0021481098       -0.0021977390
          -0.0000604623       -0.0000450122        0.0000299084
           0.0000012471        0.0000090476        0.0000084237
          -0.0052891280        0.0021216718        0.0010959423
vibration 33
           0.0010228885       -0.0001636688       -0.0005082655
          -0.0000320943       -0.0000158240        0.0000132627
          -0.0000120695       -0.0000161780        0.0000279222
          -0.0000119846        0.0000005349        0.0000102414
          -0.2179352874        0.7053213071       -0.1458475707
           0.0610280540       -0.0592710572        0.0436157836
           0.0037694070        0.0066809972        0.0346231685
          -0.5082650326       -0.0112991539       -0.4059308781
          -0.0002484407        0.0002504858       -0.0001741366
          -0.0027824993       -0.0016856510        0.0025911896
           0.0000076157        0.0000781015       -0.0000309866
          -0.0000021798        0.0000074565       -0.0000050646
          -0.0083446680        0.0042914596        0.0030639461
