
    -----------------------------------------------------------------------
          Psi4: An Open-Source Ab Initio Electronic Structure Package
                               Psi4 1.2.1 release

                         Git: Rev {HEAD} 406f4de 


    R. M. Parrish, L. A. Burns, D. G. A. Smith, A. C. Simmonett,
    A. E. DePrince III, E. G. Hohenstein, U. Bozkaya, A. Yu. Sokolov,
    R. Di Remigio, R. M. Richard, J. F. Gonthier, A. M. James,
    H. R. McAlexander, A. Kumar, M. Saitow, X. Wang, B. P. Pritchard,
    P. Verma, H. F. Schaefer III, K. Patkowski, R. A. King, E. F. Valeev,
    F. A. Evangelista, J. M. Turney, T. D. Crawford, and C. D. Sherrill,
    J. Chem. Theory Comput. 13(7) pp 3185--3197 (2017).
    (doi: 10.1021/acs.jctc.7b00174)


                         Additional Contributions by
    P. Kraus, H. Kruse, M. H. Lechner, M. C. Schieber, and R. A. Shaw

    -----------------------------------------------------------------------


    Psi4 started on: Thursday, 17 January 2019 04:19PM

    Process ID: 15640
    Host:       localhost.localdomain
    PSIDATADIR: /root/psi4conda/share/psi4
    Memory:     500.0 MiB
    Threads:    1
    
  ==> Input File <==

--------------------------------------------------------------------------
molecule{
0 1
C     -0.036463   -0.723684    0.092533
O     -1.095730   -0.765226   -0.671671
F      0.715155   -0.716144    2.117684
F     -1.048437   -0.461731    1.947694
H      1.009427    2.456861   -1.093603
C      1.205172    1.418682   -0.827951
H      1.327774    0.821422   -1.737008
H      2.111309    1.366217   -0.224377
O      0.108954    0.938119   -0.056948
H     -0.783230    0.533596   -0.652826
C     -0.180937   -0.997975    1.563336
F     -0.352622   -2.070300    1.684973
H      0.920242   -1.066363   -0.336707
}

set{
   basis 6-311++G(d,p)
   freeze_core True
   opt_type ts
}


set_num_threads(16)
optimize('m06-2x')
--------------------------------------------------------------------------
  Threads set to 16 by Python driver.
gradient() will perform analytic gradient computation.

*** tstart() called on localhost.localdomain
*** at Thu Jan 17 16:19:13 2019

   => Loading Basis Set <=

    Name: 6-311++G(D,P)
    Role: ORBITAL
    Keyword: BASIS
    atoms 1, 6, 11       entry C          line   119 file /root/psi4conda/share/psi4/basis/6-311ppg_d_p_.gbs 
    atoms 2, 9           entry O          line   161 file /root/psi4conda/share/psi4/basis/6-311ppg_d_p_.gbs 
    atoms 3-4, 12        entry F          line   182 file /root/psi4conda/share/psi4/basis/6-311ppg_d_p_.gbs 
    atoms 5, 7-8, 10, 13 entry H          line    42 file /root/psi4conda/share/psi4/basis/6-311ppg_d_p_.gbs 


         ---------------------------------------------------------
                                   SCF
            by Justin Turney, Rob Parrish, Andy Simmonett
                             and Daniel Smith
                              RKS Reference
                       16 Threads,    500 MiB Core
         ---------------------------------------------------------

  ==> Geometry <==

    Molecular point group: c1
    Full point group: C1

    Geometry (in Angstrom), charge = 0, multiplicity = 1:

       Center              X                  Y                   Z               Mass       
    ------------   -----------------  -----------------  -----------------  -----------------
         C            0.058440980848    -0.274255644944    -0.703104760985    12.000000000000
         O           -1.000826019152    -0.315797644944    -1.467308760985    15.994914619560
         F            0.810058980848    -0.266715644944     1.322046239015    18.998403224000
         F           -0.953533019152    -0.012302644944     1.152056239015    18.998403224000
         H            1.104330980848     2.906289355056    -1.889240760985     1.007825032070
         C            1.300075980848     1.868110355056    -1.623588760985    12.000000000000
         H            1.422677980848     1.270850355056    -2.532645760985     1.007825032070
         H            2.206212980848     1.815645355056    -1.020014760985     1.007825032070
         O            0.203857980848     1.387547355056    -0.852585760985    15.994914619560
         H           -0.688326019152     0.983024355056    -1.448463760985     1.007825032070
         C           -0.086033019152    -0.548546644944     0.767698239015    12.000000000000
         F           -0.257718019152    -1.620871644944     0.889335239015    18.998403224000
         H            1.015145980848    -0.616934644944    -1.132344760985     1.007825032070

  Running in c1 symmetry.

  Rotational constants: A =      0.12971  B =      0.05433  C =      0.04651 [cm^-1]
  Rotational constants: A =   3888.65116  B =   1628.81954  C =   1394.47996 [MHz]
  Nuclear repulsion =  478.278996372812514

  Charge       = 0
  Multiplicity = 1
  Electrons    = 66
  Nalpha       = 33
  Nbeta        = 33

  ==> Algorithm <==

  SCF Algorithm Type is DF.
  DIIS enabled.
  MOM disabled.
  Fractional occupation disabled.
  Guess Type is SAD.
  Energy threshold   = 1.00e-08
  Density threshold  = 1.00e-08
  Integral threshold = 0.00e+00

  ==> Primary Basis <==

  Basis Set: 6-311++G(D,P)
    Blend: 6-311++G(D,P)
    Number of shells: 105
    Number of basis function: 211
    Number of Cartesian functions: 219
    Spherical Harmonics?: true
    Max angular momentum: 2

  ==> DFT Potential <==

   => Composite Functional: M06-2X <= 

    Hybrid M06-2X Meta-GGA XC Functional

    Y. Zhao and D. G. Truhlar,  Theor. Chem. Acc., 120, 215, 2008


    Deriv               =              1
    GGA                 =           TRUE
    Meta                =           TRUE

    Exchange Hybrid     =           TRUE
    MP2 Hybrid          =          FALSE

   => Exchange Functionals <=

    1.0000   XC_HYB_MGGA_X_M06_2X

   => Exact (HF) Exchange <=

    0.5400               HF 

   => Correlation Functionals <=

    1.0000   XC_MGGA_C_M06_2X

   => Molecular Quadrature <=

    Radial Scheme       =       TREUTLER
    Pruning Scheme      =           FLAT
    Nuclear Scheme      =       TREUTLER

    BS radius alpha     =              1
    Pruning alpha       =              1
    Radial Points       =             75
    Spherical Points    =            302
    Total Points        =         294450
    Total Blocks        =           2263
    Max Points          =            256
    Max Functions       =            199

   => Loading Basis Set <=

    Name: (6-311++G(D,P) AUX)
    Role: JKFIT
    Keyword: DF_BASIS_SCF
    atoms 1, 6, 11       entry C          line   162 file /root/psi4conda/share/psi4/basis/aug-cc-pvtz-jkfit.gbs 
    atoms 2, 9           entry O          line   286 file /root/psi4conda/share/psi4/basis/aug-cc-pvtz-jkfit.gbs 
    atoms 3-4, 12        entry F          line   348 file /root/psi4conda/share/psi4/basis/aug-cc-pvtz-jkfit.gbs 
    atoms 5, 7-8, 10, 13 entry H          line    70 file /root/psi4conda/share/psi4/basis/aug-cc-pvtz-jkfit.gbs 

  ==> Pre-Iterations <==

   -------------------------------------------------------
    Irrep   Nso     Nmo     Nalpha   Nbeta   Ndocc  Nsocc
   -------------------------------------------------------
     A        211     211       0       0       0       0
   -------------------------------------------------------
    Total     211     211      33      33      33       0
   -------------------------------------------------------

  ==> Integral Setup <==

  DFHelper Memory: AOs need 0.432 [GiB]; user supplied 0.366 [GiB]. Turning off in-core AOs.

  ==> MemDFJK: Density-Fitted J/K Matrices <==

    J tasked:                   Yes
    K tasked:                   Yes
    wK tasked:                   No
    OpenMP threads:              16
    Memory (MB):                375
    Algorithm:                 Disk
    Schwarz Cutoff:           1E-12
    Mask sparsity (%):       5.8624
    Fitting Condition:        1E-12

   => Auxiliary Basis Set <=

  Basis Set: (6-311++G(D,P) AUX)
    Blend: AUG-CC-PVTZ-JKFIT
    Number of shells: 310
    Number of basis function: 1062
    Number of Cartesian functions: 1323
    Spherical Harmonics?: true
    Max angular momentum: 4

  Minimum eigenvalue in the overlap matrix is 5.6966378980E-05.
  Using Symmetric Orthogonalization.

  SCF Guess: Superposition of Atomic Densities via on-the-fly atomic UHF.

  ==> Iterations <==

                           Total Energy        Delta E     RMS |[F,P]|

   @DF-RKS iter   0:  -571.03307775340863   -5.71033e+02   1.23858e-01 
   @DF-RKS iter   1:  -566.76464369515065    4.26843e+00   1.02429e-02 
   @DF-RKS iter   2:  -566.80118478071074   -3.65411e-02   9.20475e-03 DIIS
   @DF-RKS iter   3:  -566.89479895837303   -9.36142e-02   2.31209e-03 DIIS
   @DF-RKS iter   4:  -566.89954151107963   -4.74255e-03   8.67013e-04 DIIS
   @DF-RKS iter   5:  -566.90024097275818   -6.99462e-04   2.82008e-04 DIIS
   @DF-RKS iter   6:  -566.90033261589588   -9.16431e-05   9.54427e-05 DIIS
   @DF-RKS iter   7:  -566.90034419414974   -1.15783e-05   1.81588e-05 DIIS
   @DF-RKS iter   8:  -566.90034476690266   -5.72753e-07   8.19596e-06 DIIS
   @DF-RKS iter   9:  -566.90034485647539   -8.95727e-08   1.86245e-06 DIIS
   @DF-RKS iter  10:  -566.90034486460684   -8.13145e-09   5.05141e-07 DIIS
   @DF-RKS iter  11:  -566.90034486533023   -7.23389e-10   1.59056e-07 DIIS
   @DF-RKS iter  12:  -566.90034486539696   -6.67342e-11   5.74154e-08 DIIS
   @DF-RKS iter  13:  -566.90034486540537   -8.41283e-12   2.01127e-08 DIIS
   @DF-RKS iter  14:  -566.90034486540640   -1.02318e-12   8.18757e-09 DIIS

  ==> Post-Iterations <==

    Orbital Energies [Eh]
    ---------------------

    Doubly Occupied:                                                      

       1A    -25.283587     2A    -25.276555     3A    -25.271463  
       4A    -19.688937     5A    -19.589367     6A    -10.758065  
       7A    -10.649541     8A    -10.614909     9A     -1.692154  
      10A     -1.502403    11A     -1.494497    12A     -1.227465  
      13A     -1.114568    14A     -0.893424    15A     -0.846217  
      16A     -0.819934    17A     -0.802564    18A     -0.799011  
      19A     -0.690570    20A     -0.647513    21A     -0.643031  
      22A     -0.632335    23A     -0.585071    24A     -0.574451  
      25A     -0.554952    26A     -0.548791    27A     -0.515569  
      28A     -0.502343    29A     -0.480234    30A     -0.452069  
      31A     -0.436870    32A     -0.355476    33A     -0.325748  

    Virtual:                                                              

      34A     -0.008604    35A      0.012339    36A      0.021635  
      37A      0.023719    38A      0.041301    39A      0.047135  
      40A      0.054812    41A      0.065869    42A      0.069041  
      43A      0.079957    44A      0.095597    45A      0.105496  
      46A      0.111534    47A      0.118127    48A      0.130923  
      49A      0.133880    50A      0.138081    51A      0.157478  
      52A      0.184818    53A      0.197811    54A      0.211935  
      55A      0.226119    56A      0.236267    57A      0.249191  
      58A      0.260472    59A      0.263693    60A      0.277745  
      61A      0.285118    62A      0.288902    63A      0.311268  
      64A      0.315907    65A      0.319956    66A      0.330593  
      67A      0.336884    68A      0.346413    69A      0.358110  
      70A      0.367433    71A      0.370293    72A      0.378639  
      73A      0.390743    74A      0.406342    75A      0.411331  
      76A      0.428302    77A      0.441985    78A      0.469814  
      79A      0.479837    80A      0.500657    81A      0.518523  
      82A      0.547521    83A      0.556857    84A      0.562643  
      85A      0.612389    86A      0.640724    87A      0.655796  
      88A      0.671986    89A      0.683748    90A      0.688295  
      91A      0.721854    92A      0.755389    93A      0.784521  
      94A      0.805072    95A      0.807630    96A      0.875791  
      97A      0.943058    98A      0.976989    99A      1.027816  
     100A      1.054487   101A      1.082651   102A      1.129332  
     103A      1.210723   104A      1.216335   105A      1.240230  
     106A      1.253013   107A      1.259781   108A      1.285454  
     109A      1.327083   110A      1.349939   111A      1.374401  
     112A      1.404135   113A      1.417042   114A      1.438538  
     115A      1.448999   116A      1.462394   117A      1.470698  
     118A      1.494003   119A      1.505048   120A      1.520231  
     121A      1.528379   122A      1.550160   123A      1.584107  
     124A      1.619610   125A      1.631293   126A      1.693484  
     127A      1.730143   128A      1.734967   129A      1.757851  
     130A      1.783950   131A      1.805667   132A      1.859226  
     133A      1.892945   134A      1.935036   135A      1.956658  
     136A      1.998382   137A      2.046612   138A      2.058785  
     139A      2.098319   140A      2.138044   141A      2.178288  
     142A      2.208021   143A      2.225358   144A      2.278081  
     145A      2.420567   146A      2.447757   147A      2.511036  
     148A      2.527143   149A      2.551206   150A      2.593238  
     151A      2.614315   152A      2.731224   153A      2.763079  
     154A      2.824136   155A      2.924672   156A      2.940646  
     157A      3.020878   158A      3.110263   159A      3.126961  
     160A      3.190737   161A      3.214013   162A      3.361937  
     163A      3.377369   164A      3.429221   165A      3.476587  
     166A      3.569232   167A      3.655122   168A      3.732306  
     169A      3.766214   170A      3.789101   171A      3.804627  
     172A      3.824821   173A      3.840367   174A      3.867106  
     175A      3.913937   176A      4.042338   177A      4.082539  
     178A      4.089338   179A      4.136014   180A      4.247257  
     181A      4.276849   182A      4.389722   183A      4.742022  
     184A      4.867198   185A      4.870193   186A      4.893533  
     187A      4.917145   188A      4.931577   189A      5.218633  
     190A      5.260705   191A      5.326200   192A      5.333799  
     193A      5.642466   194A      5.797169   195A      6.389469  
     196A      6.488351   197A      6.498170   198A      6.636615  
     199A      6.691521   200A      6.709820   201A      7.191683  
     202A      7.270985   203A      7.306948   204A     23.890033  
     205A     23.970846   206A     24.349873   207A     49.992578  
     208A     50.137440   209A     66.974305   210A     67.011269  
     211A     67.020859  

    Final Occupation by Irrep:
              A 
    DOCC [    33 ]

  Energy converged.

  @DF-RKS Final Energy:  -566.90034486540640

   => Energetics <=

    Nuclear Repulsion Energy =            478.2789963728125144
    One-Electron Energy =               -1731.1214089906334266
    Two-Electron Energy =                 718.2462103125333215
    DFT Exchange-Correlation Energy =     -32.3041425601188905
    Empirical Dispersion Energy =           0.0000000000000000
    VV10 Nonlocal Energy =                  0.0000000000000000
    Total Energy =                       -566.9003448654063959



Properties will be evaluated at   0.000000,   0.000000,   0.000000 [a0]

Properties computed using the SCF density matrix

  Nuclear Dipole Moment: [e a0]
     X:     5.1183      Y:     7.7587      Z:   -10.7051

  Electronic Dipole Moment: [e a0]
     X:    -3.7678      Y:    -7.0062      Z:    10.5611

  Dipole Moment: [e a0]
     X:     1.3505      Y:     0.7525      Z:    -0.1440     Total:     1.5527

  Dipole Moment: [D]
     X:     3.4326      Y:     1.9126      Z:    -0.3661     Total:     3.9465


*** tstop() called on localhost.localdomain at Thu Jan 17 16:19:36 2019
Module time:
	user time   =     319.59 seconds =       5.33 minutes
	system time =      10.61 seconds =       0.18 minutes
	total time  =         23 seconds =       0.38 minutes
Total time:
	user time   =     319.59 seconds =       5.33 minutes
	system time =      10.61 seconds =       0.18 minutes
	total time  =         23 seconds =       0.38 minutes

*** tstart() called on localhost.localdomain
*** at Thu Jan 17 16:19:36 2019


         ------------------------------------------------------------
                                   SCF GRAD                          
                          Rob Parrish, Justin Turney,                
                       Andy Simmonett, and Alex Sokolov              
         ------------------------------------------------------------

  ==> Geometry <==

    Molecular point group: c1
    Full point group: C1

    Geometry (in Angstrom), charge = 0, multiplicity = 1:

       Center              X                  Y                   Z               Mass       
    ------------   -----------------  -----------------  -----------------  -----------------
         C            0.058440980848    -0.274255644944    -0.703104760985    12.000000000000
         O           -1.000826019152    -0.315797644944    -1.467308760985    15.994914619560
         F            0.810058980848    -0.266715644944     1.322046239015    18.998403224000
         F           -0.953533019152    -0.012302644944     1.152056239015    18.998403224000
         H            1.104330980848     2.906289355056    -1.889240760985     1.007825032070
         C            1.300075980848     1.868110355056    -1.623588760985    12.000000000000
         H            1.422677980848     1.270850355056    -2.532645760985     1.007825032070
         H            2.206212980848     1.815645355056    -1.020014760985     1.007825032070
         O            0.203857980848     1.387547355056    -0.852585760985    15.994914619560
         H           -0.688326019152     0.983024355056    -1.448463760985     1.007825032070
         C           -0.086033019152    -0.548546644944     0.767698239015    12.000000000000
         F           -0.257718019152    -1.620871644944     0.889335239015    18.998403224000
         H            1.015145980848    -0.616934644944    -1.132344760985     1.007825032070

  Nuclear repulsion =  478.278996372812514

  ==> Basis Set <==

  Basis Set: 6-311++G(D,P)
    Blend: 6-311++G(D,P)
    Number of shells: 105
    Number of basis function: 211
    Number of Cartesian functions: 219
    Spherical Harmonics?: true
    Max angular momentum: 2

  ==> DFJKGrad: Density-Fitted SCF Gradients <==

    Gradient:                    1
    J tasked:                  Yes
    K tasked:                  Yes
    wK tasked:                  No
    OpenMP threads:             16
    Integrals threads:          16
    Memory (MB):               375
    Schwarz Cutoff:          0E+00
    Fitting Condition:       1E-12

   => Auxiliary Basis Set <=

  Basis Set: (6-311++G(D,P) AUX)
    Blend: AUG-CC-PVTZ-JKFIT
    Number of shells: 310
    Number of basis function: 1062
    Number of Cartesian functions: 1323
    Spherical Harmonics?: true
    Max angular momentum: 4

  ==> DFT Potential <==

   => Composite Functional: M06-2X <= 

    Hybrid M06-2X Meta-GGA XC Functional

    Y. Zhao and D. G. Truhlar,  Theor. Chem. Acc., 120, 215, 2008


    Deriv               =              1
    GGA                 =           TRUE
    Meta                =           TRUE

    Exchange Hybrid     =           TRUE
    MP2 Hybrid          =          FALSE

   => Exchange Functionals <=

    1.0000   XC_HYB_MGGA_X_M06_2X

   => Exact (HF) Exchange <=

    0.5400               HF 

   => Correlation Functionals <=

    1.0000   XC_MGGA_C_M06_2X

   => Molecular Quadrature <=

    Radial Scheme       =       TREUTLER
    Pruning Scheme      =           FLAT
    Nuclear Scheme      =       TREUTLER

    BS radius alpha     =              1
    Pruning alpha       =              1
    Radial Points       =             75
    Spherical Points    =            302
    Total Points        =         294450
    Total Blocks        =           2263
    Max Points          =            256
    Max Functions       =            199


  -Total Gradient:
     Atom            X                  Y                   Z
    ------   -----------------  -----------------  -----------------
       1       -0.009211804810    -0.018914313756     0.067542416971
       2       -0.001842174645     0.003080613482    -0.005663883135
       3       -0.477555007651    -0.163365806757    -0.254216852440
       4        0.447500587631    -0.298524620011    -0.172202264207
       5        0.000344928966     0.000129708482    -0.000316054693
       6       -0.002812788663    -0.000611662993     0.000515858390
       7        0.000308644232     0.000047360843    -0.000243025098
       8        0.000370339629    -0.000002696238     0.000011800410
       9        0.002217988711     0.005100770272    -0.003129222154
      10       -0.000133640697    -0.001713211577    -0.000613366679
      11       -0.038231387051    -0.090024597153     0.396071790558
      12        0.081220975747     0.561987842126    -0.026420557191
      13       -0.002057009091     0.002953026420    -0.001356140070


*** tstop() called on localhost.localdomain at Thu Jan 17 16:19:41 2019
Module time:
	user time   =      72.97 seconds =       1.22 minutes
	system time =       2.28 seconds =       0.04 minutes
	total time  =          5 seconds =       0.08 minutes
Total time:
	user time   =     392.60 seconds =       6.54 minutes
	system time =      12.89 seconds =       0.21 minutes
	total time  =         28 seconds =       0.47 minutes

			-----------------------------------------
			 OPTKING 2.0: for geometry optimizations 
			  - R.A. King,  Bethel University        
			-----------------------------------------

	Internal coordinates to be generated automatically.
	Detected frag 1 with atoms:  1 2 3 4 5 6 7 8 9 10 11 12 13
	---Fragment 1 Bond Connectivity---
	 1 : 2 9 11 13
	 2 : 1
	 3 : 11
	 4 : 11
	 5 : 6
	 6 : 5 7 8 9
	 7 : 6
	 8 : 6
	 9 : 1 6 10
	 10 : 9
	 11 : 1 3 4 12
	 12 : 11
	 13 : 1

	---Fragment 1 Geometry and Gradient---
	 C           0.1104374487       -0.5182680593       -1.3286754410
	 O          -1.8912870829       -0.5967710624       -2.7728117106
	 F           1.5307896253       -0.5040195243        2.4983053267
	 F          -1.8019162649       -0.0232486297        2.1770707814
	 H           2.0868831139        5.4920909440       -3.5701476373
	 C           2.4567875557        3.5302169571       -3.0681381107
	 H           2.6884717591        2.4015591269       -4.7860068799
	 H           4.1691383246        3.4310724755       -1.9275485498
	 O           0.3852357538        2.6220844975       -1.6111535931
	 H          -1.3007476663        1.8576468130       -2.7371998217
	 C          -0.1625788446       -1.0366029301        1.4507394244
	 F          -0.4870164757       -3.0630035055        1.6806000421
	 H           1.9183478887       -1.1658375208       -2.1398214863
	            -0.0092118048       -0.0189143138        0.0675424170
	            -0.0018421746        0.0030806135       -0.0056638831
	            -0.4775550077       -0.1633658068       -0.2542168524
	             0.4475005876       -0.2985246200       -0.1722022642
	             0.0003449290        0.0001297085       -0.0003160547
	            -0.0028127887       -0.0006116630        0.0005158584
	             0.0003086442        0.0000473608       -0.0002430251
	             0.0003703396       -0.0000026962        0.0000118004
	             0.0022179887        0.0051007703       -0.0031292222
	            -0.0001336407       -0.0017132116       -0.0006133667
	            -0.0382313871       -0.0900245972        0.3960717906
	             0.0812209757        0.5619878421       -0.0264205572
	            -0.0020570091        0.0029530264       -0.0013561401

	Previous optimization step data not found.  Starting new optimization.

	---Fragment 1 Intrafragment Coordinates---
	 - Coordinate -           - BOHR/RAD -       - ANG/DEG -
	 H(2,10)          =         2.524712	       1.336020
	 R(1,2)           =         2.469533	       1.306821
	 R(1,9)           =         3.164984	       1.674837
	 R(1,11)          =         2.840485	       1.503120
	 R(1,13)          =         2.084669	       1.103159
	 R(3,11)          =         2.061198	       1.090739
	 R(4,11)          =         2.059580	       1.089883
	 R(5,6)           =         2.058590	       1.089359
	 R(6,7)           =         2.068482	       1.094594
	 R(6,8)           =         2.059835	       1.090018
	 R(6,9)           =         2.690508	       1.423756
	 R(9,10)          =         2.166768	       1.146604
	 R(11,12)         =         2.065041	       1.092773
	 B(1,9,6)         =         2.037660	     116.749293
	 B(1,9,10)        =         1.190461	      68.208419
	 B(1,11,3)        =         1.951087	     111.789055
	 B(1,11,4)        =         1.909005	     109.377922
	 B(1,11,12)       =         1.878724	     107.642964
	 B(2,1,9)         =         1.620543	      92.850270
	 B(2,1,11)        =         2.081165	     119.241967
	 B(2,1,13)        =         2.055046	     117.745469
	 B(3,11,4)        =         1.925755	     110.337629
	 B(3,11,12)       =         1.902920	     109.029307
	 B(4,11,12)       =         1.894949	     108.572603
	 B(5,6,7)         =         1.915174	     109.731367
	 B(5,6,8)         =         1.907396	     109.285735
	 B(5,6,9)         =         1.891654	     108.383808
	 B(6,9,10)        =         2.022790	     115.897309
	 B(7,6,8)         =         1.918240	     109.907042
	 B(7,6,9)         =         1.930294	     110.597688
	 B(8,6,9)         =         1.900704	     108.902343
	 B(9,1,11)        =         1.851195	     106.065636
	 B(9,1,13)        =         1.770309	     101.431209
	 B(11,1,13)       =         1.990408	     114.041985
	 D(1,9,6,5)       =         2.842606	     162.869309
	 D(1,9,6,7)       =         0.742466	      42.540151
	 D(1,9,6,8)       =        -1.367210	     -78.335382
	 D(2,1,9,6)       =        -1.908821	    -109.367379
	 D(2,1,9,10)      =        -0.006768	      -0.387775
	 D(2,1,11,3)      =        -2.917743	    -167.174366
	 D(2,1,11,4)      =        -0.779631	     -44.669586
	 D(2,1,11,12)     =         1.276111	      73.115797
	 D(3,11,1,9)      =        -1.124588	     -64.434132
	 D(3,11,1,13)     =         0.808385	      46.317067
	 D(4,11,1,9)      =         1.013524	      58.070647
	 D(4,11,1,13)     =         2.946497	     168.821847
	 D(5,6,9,10)      =         1.490975	      85.426550
	 D(6,9,1,11)      =         2.252825	     129.077389
	 D(6,9,1,13)      =         0.169050	       9.685838
	 D(7,6,9,10)      =        -0.609165	     -34.902608
	 D(8,6,9,10)      =        -2.718841	    -155.778141
	 D(9,1,11,12)     =         3.069267	     175.856030
	 D(10,9,1,11)     =        -2.128307	    -121.943007
	 D(10,9,1,13)     =         2.071103	     118.665442
	 D(12,11,1,13)    =        -1.280945	     -73.392770

	Current energy   :      -566.9003448654

	Generating empirical Hessian (Schlegel '84) for each fragment.
	Taking PRFO optimization step.
	Maximizing along 1 lowest eigenvalue of Hessian.

 RFO min eigenvalues
 -0.434685 -0.000000 -0.000000 -0.000000 -0.000000 -0.000000 -0.000000 -0.000000
 -0.000000 -0.000000  0.000000  0.000000  0.000000  0.000000  0.000000  0.000000
  0.000000  0.000000  0.000000  0.000000  0.000000  0.000000  0.001803  0.002300
  0.004533  0.033781  0.041484  0.050432  0.071082  0.073784  0.074306  0.085765
  0.093288  0.102482  0.120659  0.160000  0.160000  0.160001  0.168443  0.213890
  0.233047  0.250000  0.250000  0.259170  0.285251  0.324644  0.333360  0.342871
  0.348106  0.348868  0.419000  0.649181  1.850345  1.868946  2.280947

 RFO max eigenvalues
 -0.000000  0.000000
	Change in coordinate exceeds step limit of    0.50000.
	Scaling displacements by    0.70359
	|RFO target step|  :        0.5000000000
	RFO gradient       :       -0.6116752726
	RFO hessian        :        0.6826539064
	Projected Delta(E) :       -0.1764047184

	Back-transformation to cartesian coordinates...
	Could not converge backtransformation.
	Using first guess instead.

	--- Internal Coordinate Step in ANG or DEG, aJ/ANG or AJ/DEG ---
	 ---------------------------------------------------------------------------
	   Coordinate                Previous        Force       Change         New 
	   ----------                --------       ------       ------       ------
	    1 H(2,10)         =      1.336020     0.016294     0.001498     1.337518
	    2 R(1,2)          =      1.306821    -0.042683    -0.001761     1.305059
	    3 R(1,9)          =      1.674837    -0.043004    -0.003014     1.671823
	    4 R(1,11)         =      1.503120     0.483440     0.028931     1.532051
	    5 R(1,13)         =      1.103159     0.017942     0.001060     1.104219
	    6 R(3,11)         =      1.090739     4.644956     0.092358     1.183097
	    7 R(4,11)         =      1.089883     4.644920     0.091488     1.181371
	    8 R(5,6)          =      1.089359    -0.001023    -0.000048     1.089311
	    9 R(6,7)          =      1.094594    -0.001520    -0.000078     1.094516
	   10 R(6,8)          =      1.090018    -0.002862    -0.000161     1.089857
	   11 R(6,9)          =      1.423756     0.012701     0.000683     1.424438
	   12 R(9,10)         =      1.146604     0.000247    -0.000010     1.146594
	   13 R(11,12)        =      1.092773     4.672522     0.093442     1.186215
	   14 B(1,9,6)        =    116.749293     0.000003    -0.002397   116.746896
	   15 B(1,9,10)       =     68.208419    -0.000023    -0.015644    68.192775
	   16 B(1,11,3)       =    111.789055    -0.003328    -2.425618   109.363436
	   17 B(1,11,4)       =    109.377922    -0.002232    -1.582932   107.794990
	   18 B(1,11,12)      =    107.642964    -0.002890    -2.022974   105.619991
	   19 B(2,1,9)        =     92.850270     0.000280     0.230426    93.080696
	   20 B(2,1,11)       =    119.241967    -0.000170    -0.162132   119.079835
	   21 B(2,1,13)       =    117.745469     0.000135     0.140485   117.885954
	   22 B(3,11,4)       =    110.337629     0.002527     1.635308   111.972937
	   23 B(3,11,12)      =    109.029307     0.003016     2.044736   111.074043
	   24 B(4,11,12)      =    108.572603     0.002985     2.181401   110.754004
	   25 B(5,6,7)        =    109.731367     0.000030     0.025686   109.757053
	   26 B(5,6,8)        =    109.285735     0.000021     0.018235   109.303971
	   27 B(5,6,9)        =    108.383808    -0.000047    -0.041681   108.342127
	   28 B(6,9,10)       =    115.897309     0.000051     0.049147   115.946456
	   29 B(7,6,8)        =    109.907042     0.000024     0.022700   109.929742
	   30 B(7,6,9)        =    110.597688    -0.000028    -0.025119   110.572569
	   31 B(8,6,9)        =    108.902343    -0.000000    -0.000424   108.901919
	   32 B(9,1,11)       =    106.065636    -0.000428    -0.339295   105.726341
	   33 B(9,1,13)       =    101.431209     0.000266     0.237148   101.668356
	   34 B(11,1,13)      =    114.041985    -0.000025    -0.044669   113.997315
	   35 D(1,9,6,5)      =    162.869309    -0.000001    -0.002112   162.867197
	   36 D(1,9,6,7)      =     42.540151     0.000001     0.007771    42.547922
	   37 D(1,9,6,8)      =    -78.335382    -0.000002    -0.004370   -78.339752
	   38 D(2,1,9,6)      =   -109.367379    -0.000040    -0.169716  -109.537094
	   39 D(2,1,9,10)     =     -0.387775    -0.000029    -0.118917    -0.506692
	   40 D(2,1,11,3)     =   -167.174366     0.000034     0.140184  -167.034182
	   41 D(2,1,11,4)     =    -44.669586    -0.000100    -0.404279   -45.073865
	   42 D(2,1,11,12)    =     73.115797     0.000062     0.245913    73.361710
	   43 D(3,11,1,9)     =    -64.434132     0.000033     0.137360   -64.296773
	   44 D(3,11,1,13)    =     46.317067     0.000046     0.200695    46.517762
	   45 D(4,11,1,9)     =     58.070647    -0.000101    -0.407103    57.663544
	   46 D(4,11,1,13)    =    168.821847    -0.000088    -0.343768   168.478079
	   47 D(5,6,9,10)     =     85.426550     0.000000    -0.002715    85.423835
	   48 D(6,9,1,11)     =    129.077389     0.000001    -0.001375   129.076014
	   49 D(6,9,1,13)     =      9.685838     0.000019     0.077456     9.763294
	   50 D(7,6,9,10)     =    -34.902608     0.000002     0.007168   -34.895440
	   51 D(8,6,9,10)     =   -155.778141    -0.000000    -0.004973  -155.783114
	   52 D(9,1,11,12)    =    175.856030     0.000061     0.243089   176.099119
	   53 D(10,9,1,11)    =   -121.943007     0.000012     0.049424  -121.893583
	   54 D(10,9,1,13)    =    118.665442     0.000030     0.128255   118.793697
	   55 D(12,11,1,13)   =    -73.392770     0.000074     0.306424   -73.086346
	 ---------------------------------------------------------------------------
	Successfully symmetrized geometry.

  ==> Convergence Check <==

  Measures of convergence in internal coordinates in au.
  Criteria marked as inactive (o), active & met (*), and active & unmet ( ).
  --------------------------------------------------------------------------------------------- ~
   Step     Total Energy     Delta E     MAX Force     RMS Force      MAX Disp      RMS Disp    ~
  --------------------------------------------------------------------------------------------- ~
    Convergence Criteria    1.00e-06 *    3.00e-04 *             o    1.20e-03 *             o  ~
  --------------------------------------------------------------------------------------------- ~
      1    -566.90034487   -5.67e+02      5.67e-01      1.33e-01 o    1.77e-01      4.31e-02 o  ~
  ---------------------------------------------------------------------------------------------

	Writing optimization data to binary file.
	Structure for next step:
	Cartesian Geometry (in Angstrom)
	    C     0.0582993188  -0.2741210625  -0.7153803455
	    O    -1.0008248576  -0.3169961106  -1.4766931288
	    F     0.9005727741  -0.2283869429   1.3430970761
	    F    -1.0319882747   0.0485283156   1.1704239303
	    H     1.1053024290   2.9089953907  -1.8851711382
	    C     1.3014132793   1.8697292523  -1.6242791818
	    H     1.4250238079   1.2764552068  -2.5357125880
	    H     2.2064530711   1.8146779802  -1.0195811317
	    O     0.2034972566   1.3853685816  -0.8568159044
	    H    -0.6881839203   0.9832897332  -1.4550768598
	    C    -0.0906756554  -0.5516395229   0.7839433581
	    F    -0.2705593897  -1.7205099874   0.8760841061
	    H     1.0160359119  -0.6193482183  -1.1430000851
			--------------------------
			 OPTKING Finished Execution 
			--------------------------

    Structure for next step:
    Molecular point group: c1
    Full point group: C1

    Geometry (in Angstrom), charge = 0, multiplicity = 1:

    C            0.058740486301    -0.273552325022    -0.717708907026
    O           -1.000383690081    -0.316427373170    -1.479021690303
    F            0.901013941590    -0.227818205478     1.340768514608
    F           -1.031547107144     0.049097053088     1.168095368813
    H            1.105743596494     2.909564128160    -1.887499699783
    C            1.301854446862     1.870297989735    -1.626607743367
    H            1.425464975468     1.277023944295    -2.538041149572
    H            2.206894238583     1.815246717682    -1.021909693220
    O            0.203938424100     1.385937319107    -0.859144465960
    H           -0.687742752752     0.983858470640    -1.457405421333
    C           -0.090234487844    -0.551070785467     0.781614796522
    F           -0.270118222139    -1.719941249923     0.873755544530
    H            1.016477079450    -0.618779480861    -1.145328646680

gradient() will perform analytic gradient computation.

*** tstart() called on localhost.localdomain
*** at Thu Jan 17 16:19:41 2019

   => Loading Basis Set <=

    Name: 6-311++G(D,P)
    Role: ORBITAL
    Keyword: BASIS
    atoms 1, 6, 11       entry C          line   119 file /root/psi4conda/share/psi4/basis/6-311ppg_d_p_.gbs 
    atoms 2, 9           entry O          line   161 file /root/psi4conda/share/psi4/basis/6-311ppg_d_p_.gbs 
    atoms 3-4, 12        entry F          line   182 file /root/psi4conda/share/psi4/basis/6-311ppg_d_p_.gbs 
    atoms 5, 7-8, 10, 13 entry H          line    42 file /root/psi4conda/share/psi4/basis/6-311ppg_d_p_.gbs 


         ---------------------------------------------------------
                                   SCF
            by Justin Turney, Rob Parrish, Andy Simmonett
                             and Daniel Smith
                              RKS Reference
                       16 Threads,    500 MiB Core
         ---------------------------------------------------------

  ==> Geometry <==

    Molecular point group: c1
    Full point group: C1

    Geometry (in Angstrom), charge = 0, multiplicity = 1:

       Center              X                  Y                   Z               Mass       
    ------------   -----------------  -----------------  -----------------  -----------------
         C            0.058740486301    -0.273552325022    -0.717708907026    12.000000000000
         O           -1.000383690081    -0.316427373170    -1.479021690303    15.994914619560
         F            0.901013941590    -0.227818205478     1.340768514608    18.998403224000
         F           -1.031547107144     0.049097053088     1.168095368813    18.998403224000
         H            1.105743596494     2.909564128160    -1.887499699783     1.007825032070
         C            1.301854446862     1.870297989735    -1.626607743367    12.000000000000
         H            1.425464975468     1.277023944295    -2.538041149572     1.007825032070
         H            2.206894238583     1.815246717682    -1.021909693220     1.007825032070
         O            0.203938424100     1.385937319107    -0.859144465960    15.994914619560
         H           -0.687742752752     0.983858470640    -1.457405421333     1.007825032070
         C           -0.090234487844    -0.551070785467     0.781614796522    12.000000000000
         F           -0.270118222139    -1.719941249923     0.873755544530    18.998403224000
         H            1.016477079450    -0.618779480861    -1.145328646680     1.007825032070

  Running in c1 symmetry.

  Rotational constants: A =      0.11926  B =      0.05278  C =      0.04539 [cm^-1]
  Rotational constants: A =   3575.44514  B =   1582.33643  C =   1360.86666 [MHz]
  Nuclear repulsion =  462.674290055542315

  Charge       = 0
  Multiplicity = 1
  Electrons    = 66
  Nalpha       = 33
  Nbeta        = 33

  ==> Algorithm <==

  SCF Algorithm Type is DF.
  DIIS enabled.
  MOM disabled.
  Fractional occupation disabled.
  Guess Type is READ.
  Energy threshold   = 1.00e-08
  Density threshold  = 1.00e-08
  Integral threshold = 0.00e+00

  ==> Primary Basis <==

  Basis Set: 6-311++G(D,P)
    Blend: 6-311++G(D,P)
    Number of shells: 105
    Number of basis function: 211
    Number of Cartesian functions: 219
    Spherical Harmonics?: true
    Max angular momentum: 2

  ==> DFT Potential <==

   => Composite Functional: M06-2X <= 

    Hybrid M06-2X Meta-GGA XC Functional

    Y. Zhao and D. G. Truhlar,  Theor. Chem. Acc., 120, 215, 2008


    Deriv               =              1
    GGA                 =           TRUE
    Meta                =           TRUE

    Exchange Hybrid     =           TRUE
    MP2 Hybrid          =          FALSE

   => Exchange Functionals <=

    1.0000   XC_HYB_MGGA_X_M06_2X

   => Exact (HF) Exchange <=

    0.5400               HF 

   => Correlation Functionals <=

    1.0000   XC_MGGA_C_M06_2X

   => Molecular Quadrature <=

    Radial Scheme       =       TREUTLER
    Pruning Scheme      =           FLAT
    Nuclear Scheme      =       TREUTLER

    BS radius alpha     =              1
    Pruning alpha       =              1
    Radial Points       =             75
    Spherical Points    =            302
    Total Points        =         294450
    Total Blocks        =           2266
    Max Points          =            256
    Max Functions       =            197

   => Loading Basis Set <=

    Name: (6-311++G(D,P) AUX)
    Role: JKFIT
    Keyword: DF_BASIS_SCF
    atoms 1, 6, 11       entry C          line   162 file /root/psi4conda/share/psi4/basis/aug-cc-pvtz-jkfit.gbs 
    atoms 2, 9           entry O          line   286 file /root/psi4conda/share/psi4/basis/aug-cc-pvtz-jkfit.gbs 
    atoms 3-4, 12        entry F          line   348 file /root/psi4conda/share/psi4/basis/aug-cc-pvtz-jkfit.gbs 
    atoms 5, 7-8, 10, 13 entry H          line    70 file /root/psi4conda/share/psi4/basis/aug-cc-pvtz-jkfit.gbs 

  Reading orbitals from file 180, no projection.

  ==> Pre-Iterations <==

   -------------------------------------------------------
    Irrep   Nso     Nmo     Nalpha   Nbeta   Ndocc  Nsocc
   -------------------------------------------------------
     A        211     211       0       0       0       0
   -------------------------------------------------------
    Total     211     211      33      33      33       0
   -------------------------------------------------------

  ==> Integral Setup <==

  DFHelper Memory: AOs need 0.431 [GiB]; user supplied 0.366 [GiB]. Turning off in-core AOs.

  ==> MemDFJK: Density-Fitted J/K Matrices <==

    J tasked:                   Yes
    K tasked:                   Yes
    wK tasked:                   No
    OpenMP threads:              16
    Memory (MB):                375
    Algorithm:                 Disk
    Schwarz Cutoff:           1E-12
    Mask sparsity (%):       6.1679
    Fitting Condition:        1E-12

   => Auxiliary Basis Set <=

  Basis Set: (6-311++G(D,P) AUX)
    Blend: AUG-CC-PVTZ-JKFIT
    Number of shells: 310
    Number of basis function: 1062
    Number of Cartesian functions: 1323
    Spherical Harmonics?: true
    Max angular momentum: 4

  Minimum eigenvalue in the overlap matrix is 6.0525794990E-05.
  Using Symmetric Orthogonalization.

  SCF Guess: Orbitals guess was supplied from a previous computation.

  ==> Iterations <==

                           Total Energy        Delta E     RMS |[F,P]|

   @DF-RKS iter   0:  -566.93519344463152   -5.66935e+02   1.39290e-02 
   @DF-RKS iter   1:  -567.10758123350388   -1.72388e-01   1.26743e-03 
   @DF-RKS iter   2:  -567.10836309639546   -7.81863e-04   8.54059e-04 DIIS
   @DF-RKS iter   3:  -567.10886951981956   -5.06423e-04   1.69373e-04 DIIS
   @DF-RKS iter   4:  -567.10889052595212   -2.10061e-05   4.51766e-05 DIIS
   @DF-RKS iter   5:  -567.10889200947474   -1.48352e-06   3.18767e-05 DIIS
   @DF-RKS iter   6:  -567.10889295450329   -9.45029e-07   5.80971e-06 DIIS
   @DF-RKS iter   7:  -567.10889298936149   -3.48582e-08   1.40296e-06 DIIS
   @DF-RKS iter   8:  -567.10889299128144   -1.91994e-09   6.08196e-07 DIIS
   @DF-RKS iter   9:  -567.10889299178677   -5.05338e-10   9.61329e-08 DIIS
   @DF-RKS iter  10:  -567.10889299180872   -2.19416e-11   4.52829e-08 DIIS
   @DF-RKS iter  11:  -567.10889299181372   -5.00222e-12   1.23592e-08 DIIS
   @DF-RKS iter  12:  -567.10889299181383   -1.13687e-13   5.36605e-09 DIIS

  ==> Post-Iterations <==

    Orbital Energies [Eh]
    ---------------------

    Doubly Occupied:                                                      

       1A    -25.295225     2A    -25.288891     3A    -25.284495  
       4A    -19.693064     5A    -19.593800     6A    -10.779319  
       7A    -10.662984     8A    -10.617368     9A     -1.597222  
      10A     -1.458741    11A     -1.452489    12A     -1.231320  
      13A     -1.118633    14A     -0.873454    15A     -0.825779  
      16A     -0.811240    17A     -0.770146    18A     -0.767056  
      19A     -0.684094    20A     -0.643157    21A     -0.621050  
      22A     -0.618059    23A     -0.586087    24A     -0.574917  
      25A     -0.556952    26A     -0.552892    27A     -0.529512  
      28A     -0.507635    29A     -0.483880    30A     -0.456358  
      31A     -0.441132    32A     -0.359262    33A     -0.332619  

    Virtual:                                                              

      34A     -0.009448    35A      0.011733    36A      0.020686  
      37A      0.023106    38A      0.039462    39A      0.047177  
      40A      0.053414    41A      0.065516    42A      0.068317  
      43A      0.080007    44A      0.094606    45A      0.104836  
      46A      0.110969    47A      0.117185    48A      0.129704  
      49A      0.132850    50A      0.137288    51A      0.156045  
      52A      0.183026    53A      0.195612    54A      0.210257  
      55A      0.223544    56A      0.233949    57A      0.245139  
      58A      0.257362    59A      0.260159    60A      0.273018  
      61A      0.285468    62A      0.286711    63A      0.302848  
      64A      0.303534    65A      0.316210    66A      0.327704  
      67A      0.333358    68A      0.341336    69A      0.352538  
      70A      0.358860    71A      0.368515    72A      0.375203  
      73A      0.382252    74A      0.397940    75A      0.409618  
      76A      0.419294    77A      0.435348    78A      0.457716  
      79A      0.464882    80A      0.477322    81A      0.497488  
      82A      0.522557    83A      0.540833    84A      0.547367  
      85A      0.562167    86A      0.609673    87A      0.625243  
      88A      0.642205    89A      0.653853    90A      0.672535  
      91A      0.704405    92A      0.721082    93A      0.735193  
      94A      0.770743    95A      0.784588    96A      0.795068  
      97A      0.937097    98A      0.989389    99A      1.025593  
     100A      1.048271   101A      1.075174   102A      1.114569  
     103A      1.185383   104A      1.210983   105A      1.222868  
     106A      1.233168   107A      1.255339   108A      1.293657  
     109A      1.348905   110A      1.366492   111A      1.397463  
     112A      1.398018   113A      1.416571   114A      1.453738  
     115A      1.457461   116A      1.473535   117A      1.476968  
     118A      1.481219   119A      1.497703   120A      1.513555  
     121A      1.524120   122A      1.547346   123A      1.579648  
     124A      1.606005   125A      1.623198   126A      1.664568  
     127A      1.715734   128A      1.725403   129A      1.753879  
     130A      1.759885   131A      1.787461   132A      1.847647  
     133A      1.880364   134A      1.934447   135A      1.950147  
     136A      1.985047   137A      2.013985   138A      2.036320  
     139A      2.080760   140A      2.095850   141A      2.139523  
     142A      2.146434   143A      2.205140   144A      2.228942  
     145A      2.370485   146A      2.444789   147A      2.499166  
     148A      2.523939   149A      2.545192   150A      2.588758  
     151A      2.608304   152A      2.729286   153A      2.757375  
     154A      2.812424   155A      2.921189   156A      2.935844  
     157A      3.011319   158A      3.055115   159A      3.114074  
     160A      3.183278   161A      3.207413   162A      3.312320  
     163A      3.318920   164A      3.375029   165A      3.455906  
     166A      3.566221   167A      3.656217   168A      3.730064  
     169A      3.768881   170A      3.790502   171A      3.810679  
     172A      3.815298   173A      3.826254   174A      3.846357  
     175A      3.897391   176A      3.901160   177A      3.911530  
     178A      4.024877   179A      4.104834   180A      4.159868  
     181A      4.188322   182A      4.205715   183A      4.514252  
     184A      4.641189   185A      4.655707   186A      4.786023  
     187A      5.000929   188A      5.016667   189A      5.212948  
     190A      5.255147   191A      5.320542   192A      5.327376  
     193A      5.637322   194A      5.780579   195A      6.421693  
     196A      6.490303   197A      6.496022   198A      6.550819  
     199A      6.562499   200A      6.575393   201A      6.810528  
     202A      7.143195   203A      7.155855   204A     23.855062  
     205A     23.966812   206A     23.986072   207A     49.988489  
     208A     50.131687   209A     66.928421   210A     66.931980  
     211A     66.954914  

    Final Occupation by Irrep:
              A 
    DOCC [    33 ]

  Energy converged.

  @DF-RKS Final Energy:  -567.10889299181383

   => Energetics <=

    Nuclear Repulsion Energy =            462.6742900555423148
    One-Electron Energy =               -1700.8397106234097009
    Two-Electron Energy =                 703.2270635318548102
    DFT Exchange-Correlation Energy =     -32.1705359558012347
    Empirical Dispersion Energy =           0.0000000000000000
    VV10 Nonlocal Energy =                  0.0000000000000000
    Total Energy =                       -567.1088929918138319



Properties will be evaluated at   0.000000,   0.000000,   0.000000 [a0]

Properties computed using the SCF density matrix

  Nuclear Dipole Moment: [e a0]
     X:     5.1241      Y:     7.7650      Z:   -10.7490

  Electronic Dipole Moment: [e a0]
     X:    -3.7663      Y:    -6.9634      Z:    10.4938

  Dipole Moment: [e a0]
     X:     1.3578      Y:     0.8016      Z:    -0.2553     Total:     1.5973

  Dipole Moment: [D]
     X:     3.4512      Y:     2.0375      Z:    -0.6488     Total:     4.0600


*** tstop() called on localhost.localdomain at Thu Jan 17 16:19:59 2019
Module time:
	user time   =     264.09 seconds =       4.40 minutes
	system time =       9.22 seconds =       0.15 minutes
	total time  =         18 seconds =       0.30 minutes
Total time:
	user time   =     657.23 seconds =      10.95 minutes
	system time =      22.16 seconds =       0.37 minutes
	total time  =         46 seconds =       0.77 minutes

*** tstart() called on localhost.localdomain
*** at Thu Jan 17 16:19:59 2019


         ------------------------------------------------------------
                                   SCF GRAD                          
                          Rob Parrish, Justin Turney,                
                       Andy Simmonett, and Alex Sokolov              
         ------------------------------------------------------------

  ==> Geometry <==

    Molecular point group: c1
    Full point group: C1

    Geometry (in Angstrom), charge = 0, multiplicity = 1:

       Center              X                  Y                   Z               Mass       
    ------------   -----------------  -----------------  -----------------  -----------------
         C            0.058740486301    -0.273552325022    -0.717708907026    12.000000000000
         O           -1.000383690081    -0.316427373170    -1.479021690303    15.994914619560
         F            0.901013941590    -0.227818205478     1.340768514608    18.998403224000
         F           -1.031547107144     0.049097053088     1.168095368813    18.998403224000
         H            1.105743596494     2.909564128160    -1.887499699783     1.007825032070
         C            1.301854446862     1.870297989735    -1.626607743367    12.000000000000
         H            1.425464975468     1.277023944295    -2.538041149572     1.007825032070
         H            2.206894238583     1.815246717682    -1.021909693220     1.007825032070
         O            0.203938424100     1.385937319107    -0.859144465960    15.994914619560
         H           -0.687742752752     0.983858470640    -1.457405421333     1.007825032070
         C           -0.090234487844    -0.551070785467     0.781614796522    12.000000000000
         F           -0.270118222139    -1.719941249923     0.873755544530    18.998403224000
         H            1.016477079450    -0.618779480861    -1.145328646680     1.007825032070

  Nuclear repulsion =  462.674290055542315

  ==> Basis Set <==

  Basis Set: 6-311++G(D,P)
    Blend: 6-311++G(D,P)
    Number of shells: 105
    Number of basis function: 211
    Number of Cartesian functions: 219
    Spherical Harmonics?: true
    Max angular momentum: 2

  ==> DFJKGrad: Density-Fitted SCF Gradients <==

    Gradient:                    1
    J tasked:                  Yes
    K tasked:                  Yes
    wK tasked:                  No
    OpenMP threads:             16
    Integrals threads:          16
    Memory (MB):               375
    Schwarz Cutoff:          0E+00
    Fitting Condition:       1E-12

   => Auxiliary Basis Set <=

  Basis Set: (6-311++G(D,P) AUX)
    Blend: AUG-CC-PVTZ-JKFIT
    Number of shells: 310
    Number of basis function: 1062
    Number of Cartesian functions: 1323
    Spherical Harmonics?: true
    Max angular momentum: 4

  ==> DFT Potential <==

   => Composite Functional: M06-2X <= 

    Hybrid M06-2X Meta-GGA XC Functional

    Y. Zhao and D. G. Truhlar,  Theor. Chem. Acc., 120, 215, 2008


    Deriv               =              1
    GGA                 =           TRUE
    Meta                =           TRUE

    Exchange Hybrid     =           TRUE
    MP2 Hybrid          =          FALSE

   => Exchange Functionals <=

    1.0000   XC_HYB_MGGA_X_M06_2X

   => Exact (HF) Exchange <=

    0.5400               HF 

   => Correlation Functionals <=

    1.0000   XC_MGGA_C_M06_2X

   => Molecular Quadrature <=

    Radial Scheme       =       TREUTLER
    Pruning Scheme      =           FLAT
    Nuclear Scheme      =       TREUTLER

    BS radius alpha     =              1
    Pruning alpha       =              1
    Radial Points       =             75
    Spherical Points    =            302
    Total Points        =         294450
    Total Blocks        =           2266
    Max Points          =            256
    Max Functions       =            197


  -Total Gradient:
     Atom            X                  Y                   Z
    ------   -----------------  -----------------  -----------------
       1       -0.003373733097    -0.013545796662     0.039097346648
       2       -0.003560970692     0.002941743511    -0.007028210014
       3       -0.201730222927    -0.066657833003    -0.118254954021
       4        0.187853736875    -0.122375042857    -0.087223073767
       5        0.000447409452     0.000227734423    -0.000361686282
       6       -0.002974115816    -0.000398347259     0.000526396805
       7        0.000289608366     0.000019242329    -0.000189855243
       8        0.000414277751     0.000043404384    -0.000130538582
       9        0.002918799804     0.006541861847    -0.003050891494
      10       -0.000004693378    -0.002589911988    -0.000770678707
      11       -0.013517301751    -0.044695050981     0.206142527625
      12        0.033723813316     0.237538744242    -0.025087390417
      13       -0.000816403837     0.002841930315    -0.003785037115


*** tstop() called on localhost.localdomain at Thu Jan 17 16:20:04 2019
Module time:
	user time   =      69.77 seconds =       1.16 minutes
	system time =       2.01 seconds =       0.03 minutes
	total time  =          5 seconds =       0.08 minutes
Total time:
	user time   =     727.03 seconds =      12.12 minutes
	system time =      24.17 seconds =       0.40 minutes
	total time  =         51 seconds =       0.85 minutes

			-----------------------------------------
			 OPTKING 2.0: for geometry optimizations 
			  - R.A. King,  Bethel University        
			-----------------------------------------

	Previous internal coordinate definitions found.
	---Fragment 1 Geometry and Gradient---
	 C           0.1110034320       -0.5169389773       -1.3562732774
	 O          -1.8904512021       -0.5979610762       -2.7949459393
	 F           1.7026695915       -0.4305140164        2.5336853002
	 F          -1.9493415257        0.0927799843        2.2073803441
	 H           2.0895525706        5.4982793683       -3.5668575085
	 C           2.4601483694        3.5343509875       -3.0738431606
	 H           2.6937384157        2.4132255199       -4.7962026867
	 H           4.1704257152        3.4303191600       -1.9311294527
	 O           0.3853877695        2.6190419705       -1.6235477492
	 H          -1.2996454526        1.8592230630       -2.7540971109
	 C          -0.1705184698       -1.0413728644        1.4770379068
	 F          -0.5104494633       -3.2502179270        1.6511586863
	 H           1.9208633005       -1.1693237555       -2.1643574744
	            -0.0033737331       -0.0135457967        0.0390973466
	            -0.0035609707        0.0029417435       -0.0070282100
	            -0.2017302229       -0.0666578330       -0.1182549540
	             0.1878537369       -0.1223750429       -0.0872230738
	             0.0004474095        0.0002277344       -0.0003616863
	            -0.0029741158       -0.0003983473        0.0005263968
	             0.0002896084        0.0000192423       -0.0001898552
	             0.0004142778        0.0000434044       -0.0001305386
	             0.0029187998        0.0065418618       -0.0030508915
	            -0.0000046934       -0.0025899120       -0.0007706787
	            -0.0135173018       -0.0446950510        0.2061425276
	             0.0337238133        0.2375387442       -0.0250873904
	            -0.0008164038        0.0028419303       -0.0037850371

	---Fragment 1 Intrafragment Coordinates---
	 - Coordinate -           - BOHR/RAD -       - ANG/DEG -
	 H(2,10)          =         2.527543	       1.337518
	 R(1,2)           =         2.466204	       1.305059
	 R(1,9)           =         3.159288	       1.671823
	 R(1,11)          =         2.895158	       1.532051
	 R(1,13)          =         2.086672	       1.104219
	 R(3,11)          =         2.235729	       1.183097
	 R(4,11)          =         2.232468	       1.181371
	 R(5,6)           =         2.058499	       1.089311
	 R(6,7)           =         2.068335	       1.094516
	 R(6,8)           =         2.059530	       1.089857
	 R(6,9)           =         2.691798	       1.424438
	 R(9,10)          =         2.166750	       1.146594
	 R(11,12)         =         2.241622	       1.186215
	 B(1,9,6)         =         2.037618	     116.746896
	 B(1,9,10)        =         1.190188	      68.192775
	 B(1,11,3)        =         1.908752	     109.363436
	 B(1,11,4)        =         1.881377	     107.794990
	 B(1,11,12)       =         1.843417	     105.619991
	 B(2,1,9)         =         1.624565	      93.080696
	 B(2,1,11)        =         2.078335	     119.079835
	 B(2,1,13)        =         2.057498	     117.885954
	 B(3,11,4)        =         1.954296	     111.972937
	 B(3,11,12)       =         1.938608	     111.074043
	 B(4,11,12)       =         1.933022	     110.754004
	 B(5,6,7)         =         1.915622	     109.757053
	 B(5,6,8)         =         1.907714	     109.303971
	 B(5,6,9)         =         1.890927	     108.342127
	 B(6,9,10)        =         2.023647	     115.946456
	 B(7,6,8)         =         1.918636	     109.929742
	 B(7,6,9)         =         1.929855	     110.572569
	 B(8,6,9)         =         1.900697	     108.901919
	 B(9,1,11)        =         1.845273	     105.726341
	 B(9,1,13)        =         1.774448	     101.668356
	 B(11,1,13)       =         1.989628	     113.997315
	 D(1,9,6,5)       =         2.842569	     162.867197
	 D(1,9,6,7)       =         0.742601	      42.547922
	 D(1,9,6,8)       =        -1.367287	     -78.339752
	 D(2,1,9,6)       =        -1.911783	    -109.537094
	 D(2,1,9,10)      =        -0.008843	      -0.506692
	 D(2,1,11,3)      =        -2.915296	    -167.034182
	 D(2,1,11,4)      =        -0.786687	     -45.073865
	 D(2,1,11,12)     =         1.280403	      73.361710
	 D(3,11,1,9)      =        -1.122190	     -64.296773
	 D(3,11,1,13)     =         0.811888	      46.517762
	 D(4,11,1,9)      =         1.006419	      57.663544
	 D(4,11,1,13)     =         2.940497	     168.478079
	 D(5,6,9,10)      =         1.490927	      85.423835
	 D(6,9,1,11)      =         2.252801	     129.076014
	 D(6,9,1,13)      =         0.170402	       9.763294
	 D(7,6,9,10)      =        -0.609040	     -34.895440
	 D(8,6,9,10)      =        -2.718928	    -155.783114
	 D(9,1,11,12)     =         3.073509	     176.099119
	 D(10,9,1,11)     =        -2.127444	    -121.893583
	 D(10,9,1,13)     =         2.073341	     118.793697
	 D(12,11,1,13)    =        -1.275597	     -73.086346

	Current energy   :      -567.1088929918

	Energy change for the previous step:
		Projected    :        -0.1764047184
		Actual       :        -0.2085481264

	Performing Bofill update.
	Previous computed or guess Hessian on step 1.
	Steps to be used in Hessian update: 1
	Taking PRFO optimization step.
	Maximizing along 1 lowest eigenvalue of Hessian.

 RFO min eigenvalues
 -0.103908 -0.000000 -0.000000 -0.000000 -0.000000 -0.000000 -0.000000 -0.000000
 -0.000000 -0.000000 -0.000000 -0.000000 -0.000000 -0.000000  0.000000  0.000000
  0.000000  0.000000  0.000000  0.000000  0.000000  0.000000  0.001803  0.002301
  0.004534  0.033805  0.041487  0.050432  0.071082  0.073784  0.074308  0.086081
  0.093715  0.102515  0.120673  0.160000  0.160000  0.160001  0.168435  0.213772
  0.233015  0.249769  0.249886  0.285247  0.309464  0.333328  0.342871  0.348106
  0.348868  0.418991  0.455597  0.649180  1.850607  1.865566  1.913126

 RFO max eigenvalues
 -0.000000  0.000000
	|RFO target step|  :        0.3281060254
	RFO gradient       :       -0.3166905733
	RFO hessian        :        0.8851012309
	Projected Delta(E) :       -0.0507974119

	Back-transformation to cartesian coordinates...
	Could not converge backtransformation.
	Using first guess instead.

	--- Internal Coordinate Step in ANG or DEG, aJ/ANG or AJ/DEG ---
	 ---------------------------------------------------------------------------
	   Coordinate                Previous        Force       Change         New 
	   ----------                --------       ------       ------       ------
	    1 H(2,10)         =      1.337518     0.017113     0.009443     1.346961
	    2 R(1,2)          =      1.305059    -0.060539    -0.006851     1.298208
	    3 R(1,9)          =      1.671823    -0.052340    -0.014066     1.657757
	    4 R(1,11)         =      1.532051     0.207497     0.031766     1.563818
	    5 R(1,13)         =      1.104219     0.000961    -0.000134     1.104085
	    6 R(3,11)         =      1.183097     2.002721     0.073387     1.256484
	    7 R(4,11)         =      1.181371     1.980634     0.074005     1.255377
	    8 R(5,6)          =      1.089311    -0.001866    -0.000159     1.089152
	    9 R(6,7)          =      1.094516    -0.001426    -0.000062     1.094454
	   10 R(6,8)          =      1.089857    -0.002390    -0.000278     1.089578
	   11 R(6,9)          =      1.424438     0.010650     0.001844     1.426282
	   12 R(9,10)         =      1.146594    -0.001496    -0.000392     1.146202
	   13 R(11,12)        =      1.186215     1.986673     0.075191     1.261407
	   14 B(1,9,6)        =    116.746896    -0.000067    -0.241671   116.505225
	   15 B(1,9,10)       =     68.192775     0.000034     0.281047    68.473821
	   16 B(1,11,3)       =    109.363436     0.000092     1.763426   111.126863
	   17 B(1,11,4)       =    107.794990     0.000919     3.943642   111.738632
	   18 B(1,11,12)      =    105.619991     0.000648     3.388320   109.008311
	   19 B(2,1,9)        =     93.080696     0.000288     0.895933    93.976629
	   20 B(2,1,11)       =    119.079835    -0.000116    -0.484951   118.594884
	   21 B(2,1,13)       =    117.885954     0.000182     0.979367   118.865321
	   22 B(3,11,4)       =    111.972937    -0.000658    -3.335293   108.637644
	   23 B(3,11,12)      =    111.074043    -0.000464    -3.050393   108.023650
	   24 B(4,11,12)      =    110.754004    -0.000405    -2.561548   108.192456
	   25 B(5,6,7)        =    109.757053     0.000033     0.115492   109.872545
	   26 B(5,6,8)        =    109.303971     0.000033     0.104713   109.408684
	   27 B(5,6,9)        =    108.342127    -0.000060    -0.219640   108.122487
	   28 B(6,9,10)       =    115.946456     0.000041     0.282983   116.229439
	   29 B(7,6,8)        =    109.929742     0.000031     0.144565   110.074306
	   30 B(7,6,9)        =    110.572569    -0.000016    -0.047107   110.525462
	   31 B(8,6,9)        =    108.901919    -0.000023    -0.103808   108.798111
	   32 B(9,1,11)       =    105.726341    -0.000485    -1.422768   104.303572
	   33 B(9,1,13)       =    101.668356     0.000336     1.286589   102.954945
	   34 B(11,1,13)      =    113.997315    -0.000134    -0.887139   113.110177
	   35 D(1,9,6,5)      =    162.867197     0.000004     0.183422   163.050619
	   36 D(1,9,6,7)      =     42.547922     0.000005     0.207865    42.755787
	   37 D(1,9,6,8)      =    -78.339752     0.000002     0.125084   -78.214668
	   38 D(2,1,9,6)      =   -109.537094    -0.000046    -1.011723  -110.548817
	   39 D(2,1,9,10)     =     -0.506692    -0.000028    -0.518077    -1.024769
	   40 D(2,1,11,3)     =   -167.034182     0.000002    -0.085342  -167.119524
	   41 D(2,1,11,4)     =    -45.073865    -0.000039    -0.517787   -45.591652
	   42 D(2,1,11,12)    =     73.361710     0.000034     0.575130    73.936839
	   43 D(3,11,1,9)     =    -64.296773     0.000001    -0.084864   -64.381637
	   44 D(3,11,1,13)    =     46.517762     0.000014     0.222119    46.739881
	   45 D(4,11,1,9)     =     57.663544    -0.000040    -0.517309    57.146235
	   46 D(4,11,1,13)    =    168.478079    -0.000028    -0.210326   168.267753
	   47 D(5,6,9,10)     =     85.423835    -0.000003    -0.169923    85.253913
	   48 D(6,9,1,11)     =    129.076014    -0.000015    -0.478103   128.597912
	   49 D(6,9,1,13)     =      9.763294     0.000029     0.521602    10.284896
	   50 D(7,6,9,10)     =    -34.895440    -0.000002    -0.145480   -35.040919
	   51 D(8,6,9,10)     =   -155.783114    -0.000005    -0.228260  -156.011374
	   52 D(9,1,11,12)    =    176.099119     0.000032     0.575608   176.674727
	   53 D(10,9,1,11)    =   -121.893583     0.000002     0.015543  -121.878040
	   54 D(10,9,1,13)    =    118.793697     0.000047     1.015247   119.808944
	   55 D(12,11,1,13)   =    -73.086346     0.000045     0.882591   -72.203755
	 ---------------------------------------------------------------------------
	Successfully symmetrized geometry.

  ==> Convergence Check <==

  Measures of convergence in internal coordinates in au.
  Criteria marked as inactive (o), active & met (*), and active & unmet ( ).
  ---------------------------------------------------------------------------------------------
   Step     Total Energy     Delta E     MAX Force     RMS Force      MAX Disp      RMS Disp   
  ---------------------------------------------------------------------------------------------
    Convergence Criteria    1.00e-06 *    3.00e-04 *             o    1.20e-03 *             o
  ---------------------------------------------------------------------------------------------
      2    -567.10889299   -2.09e-01      2.43e-01      5.66e-02 o    1.42e-01      3.93e-02 o  ~
  ---------------------------------------------------------------------------------------------

	Writing optimization data to binary file.
	Structure for next step:
	Cartesian Geometry (in Angstrom)
	    C     0.0581299904  -0.2701098418  -0.7714289035
	    O    -1.0017715129  -0.3190382717  -1.5194657855
	    F     0.9441453521  -0.2121140213   1.3854984182
	    F    -1.0718719477   0.0707157097   1.2491278521
	    H     1.1112263107   2.9190571630  -1.8690600519
	    C     1.3061616863   1.8748879320  -1.6283037581
	    H     1.4355724073   1.2985431018  -2.5496661828
	    H     2.2041281499   1.8062676097  -1.0150108625
	    O     0.1988259528   1.3781548220  -0.8790742520
	    H    -0.6920686156   0.9914527538  -1.4878011377
	    C    -0.0935222480  -0.5457030958   0.7604250362
	    F    -0.2769218137  -1.7807936178   0.9394852106
	    H     1.0180672174  -0.6278840408  -1.1831587760
			--------------------------
			 OPTKING Finished Execution 
			--------------------------

    Structure for next step:
    Molecular point group: c1
    Full point group: C1

    Geometry (in Angstrom), charge = 0, multiplicity = 1:

    C            0.059397705551    -0.266789073406    -0.784489244644
    O           -1.000503797742    -0.315717503269    -1.532526126670
    F            0.945413067261    -0.208793252914     1.372438077012
    F           -1.070604232500     0.074036478123     1.236067510940
    H            1.112494025834     2.922377931418    -1.882120393000
    C            1.307429401433     1.878208700398    -1.641364099215
    H            1.436840122434     1.301863870233    -2.562726523983
    H            2.205395865114     1.809588378150    -1.028071203601
    O            0.200093667941     1.381475590465    -0.892134593140
    H           -0.690800900393     0.994773522249    -1.500861478812
    C           -0.092254532862    -0.542382327331     0.747364695016
    F           -0.275654098576    -1.777472849393     0.926424869493
    H            1.019334932552    -0.624563272412    -1.196219117111

gradient() will perform analytic gradient computation.

*** tstart() called on localhost.localdomain
*** at Thu Jan 17 16:20:04 2019

   => Loading Basis Set <=

    Name: 6-311++G(D,P)
    Role: ORBITAL
    Keyword: BASIS
    atoms 1, 6, 11       entry C          line   119 file /root/psi4conda/share/psi4/basis/6-311ppg_d_p_.gbs 
    atoms 2, 9           entry O          line   161 file /root/psi4conda/share/psi4/basis/6-311ppg_d_p_.gbs 
    atoms 3-4, 12        entry F          line   182 file /root/psi4conda/share/psi4/basis/6-311ppg_d_p_.gbs 
    atoms 5, 7-8, 10, 13 entry H          line    42 file /root/psi4conda/share/psi4/basis/6-311ppg_d_p_.gbs 


         ---------------------------------------------------------
                                   SCF
            by Justin Turney, Rob Parrish, Andy Simmonett
                             and Daniel Smith
                              RKS Reference
                       16 Threads,    500 MiB Core
         ---------------------------------------------------------

  ==> Geometry <==

    Molecular point group: c1
    Full point group: C1

    Geometry (in Angstrom), charge = 0, multiplicity = 1:

       Center              X                  Y                   Z               Mass       
    ------------   -----------------  -----------------  -----------------  -----------------
         C            0.059397705551    -0.266789073406    -0.784489244644    12.000000000000
         O           -1.000503797742    -0.315717503269    -1.532526126670    15.994914619560
         F            0.945413067261    -0.208793252914     1.372438077012    18.998403224000
         F           -1.070604232500     0.074036478123     1.236067510940    18.998403224000
         H            1.112494025834     2.922377931418    -1.882120393000     1.007825032070
         C            1.307429401433     1.878208700398    -1.641364099215    12.000000000000
         H            1.436840122434     1.301863870233    -2.562726523983     1.007825032070
         H            2.205395865114     1.809588378150    -1.028071203601     1.007825032070
         O            0.200093667941     1.381475590465    -0.892134593140    15.994914619560
         H           -0.690800900393     0.994773522249    -1.500861478812     1.007825032070
         C           -0.092254532862    -0.542382327331     0.747364695016    12.000000000000
         F           -0.275654098576    -1.777472849393     0.926424869493    18.998403224000
         H            1.019334932552    -0.624563272412    -1.196219117111     1.007825032070

  Running in c1 symmetry.

  Rotational constants: A =      0.11250  B =      0.05058  C =      0.04361 [cm^-1]
  Rotational constants: A =   3372.52900  B =   1516.33100  C =   1307.29689 [MHz]
  Nuclear repulsion =  450.408709959691464

  Charge       = 0
  Multiplicity = 1
  Electrons    = 66
  Nalpha       = 33
  Nbeta        = 33

  ==> Algorithm <==

  SCF Algorithm Type is DF.
  DIIS enabled.
  MOM disabled.
  Fractional occupation disabled.
  Guess Type is READ.
  Energy threshold   = 1.00e-08
  Density threshold  = 1.00e-08
  Integral threshold = 0.00e+00

  ==> Primary Basis <==

  Basis Set: 6-311++G(D,P)
    Blend: 6-311++G(D,P)
    Number of shells: 105
    Number of basis function: 211
    Number of Cartesian functions: 219
    Spherical Harmonics?: true
    Max angular momentum: 2

  ==> DFT Potential <==

   => Composite Functional: M06-2X <= 

    Hybrid M06-2X Meta-GGA XC Functional

    Y. Zhao and D. G. Truhlar,  Theor. Chem. Acc., 120, 215, 2008


    Deriv               =              1
    GGA                 =           TRUE
    Meta                =           TRUE

    Exchange Hybrid     =           TRUE
    MP2 Hybrid          =          FALSE

   => Exchange Functionals <=

    1.0000   XC_HYB_MGGA_X_M06_2X

   => Exact (HF) Exchange <=

    0.5400               HF 

   => Correlation Functionals <=

    1.0000   XC_MGGA_C_M06_2X

   => Molecular Quadrature <=

    Radial Scheme       =       TREUTLER
    Pruning Scheme      =           FLAT
    Nuclear Scheme      =       TREUTLER

    BS radius alpha     =              1
    Pruning alpha       =              1
    Radial Points       =             75
    Spherical Points    =            302
    Total Points        =         294450
    Total Blocks        =           2265
    Max Points          =            256
    Max Functions       =            196

   => Loading Basis Set <=

    Name: (6-311++G(D,P) AUX)
    Role: JKFIT
    Keyword: DF_BASIS_SCF
    atoms 1, 6, 11       entry C          line   162 file /root/psi4conda/share/psi4/basis/aug-cc-pvtz-jkfit.gbs 
    atoms 2, 9           entry O          line   286 file /root/psi4conda/share/psi4/basis/aug-cc-pvtz-jkfit.gbs 
    atoms 3-4, 12        entry F          line   348 file /root/psi4conda/share/psi4/basis/aug-cc-pvtz-jkfit.gbs 
    atoms 5, 7-8, 10, 13 entry H          line    70 file /root/psi4conda/share/psi4/basis/aug-cc-pvtz-jkfit.gbs 

  Reading orbitals from file 180, no projection.

  ==> Pre-Iterations <==

   -------------------------------------------------------
    Irrep   Nso     Nmo     Nalpha   Nbeta   Ndocc  Nsocc
   -------------------------------------------------------
     A        211     211       0       0       0       0
   -------------------------------------------------------
    Total     211     211      33      33      33       0
   -------------------------------------------------------

  ==> Integral Setup <==

  DFHelper Memory: AOs need 0.429 [GiB]; user supplied 0.366 [GiB]. Turning off in-core AOs.

  ==> MemDFJK: Density-Fitted J/K Matrices <==

    J tasked:                   Yes
    K tasked:                   Yes
    wK tasked:                   No
    OpenMP threads:              16
    Memory (MB):                375
    Algorithm:                 Disk
    Schwarz Cutoff:           1E-12
    Mask sparsity (%):       6.7294
    Fitting Condition:        1E-12

   => Auxiliary Basis Set <=

  Basis Set: (6-311++G(D,P) AUX)
    Blend: AUG-CC-PVTZ-JKFIT
    Number of shells: 310
    Number of basis function: 1062
    Number of Cartesian functions: 1323
    Spherical Harmonics?: true
    Max angular momentum: 4

  Minimum eigenvalue in the overlap matrix is 6.6645180255E-05.
  Using Symmetric Orthogonalization.

  SCF Guess: Orbitals guess was supplied from a previous computation.

  ==> Iterations <==

                           Total Energy        Delta E     RMS |[F,P]|

   @DF-RKS iter   0:  -567.01097905035192   -5.67011e+02   9.33268e-03 
   @DF-RKS iter   1:  -567.17589891297280   -1.64920e-01   1.56724e-03 
   @DF-RKS iter   2:  -567.17728749934997   -1.38859e-03   1.10407e-03 DIIS
   @DF-RKS iter   3:  -567.17859671885446   -1.30922e-03   2.06902e-04 DIIS
   @DF-RKS iter   4:  -567.17863599932241   -3.92805e-05   7.11842e-05 DIIS
   @DF-RKS iter   5:  -567.17864099726967   -4.99795e-06   3.03153e-05 DIIS
   @DF-RKS iter   6:  -567.17864184032510   -8.43055e-07   1.13682e-05 DIIS
   @DF-RKS iter   7:  -567.17864196653204   -1.26207e-07   2.64621e-06 DIIS
   @DF-RKS iter   8:  -567.17864197376980   -7.23776e-09   1.05153e-06 DIIS
   @DF-RKS iter   9:  -567.17864197498648   -1.21668e-09   2.41141e-07 DIIS
   @DF-RKS iter  10:  -567.17864197510244   -1.15961e-10   8.40534e-08 DIIS
   @DF-RKS iter  11:  -567.17864197511733   -1.48930e-11   2.18825e-08 DIIS
   @DF-RKS iter  12:  -567.17864197511881   -1.47793e-12   8.79345e-09 DIIS

  ==> Post-Iterations <==

    Orbital Energies [Eh]
    ---------------------

    Doubly Occupied:                                                      

       1A    -25.290025     2A    -25.284563     3A    -25.282446  
       4A    -19.704929     5A    -19.603411     6A    -10.792693  
       7A    -10.684773     8A    -10.624282     9A     -1.536439  
      10A     -1.416910    11A     -1.412086    12A     -1.243385  
      13A     -1.129869    14A     -0.866768    15A     -0.830055  
      16A     -0.786855    17A     -0.734963    18A     -0.732906  
      19A     -0.681191    20A     -0.650060    21A     -0.600579  
      22A     -0.599665    23A     -0.585536    24A     -0.566507  
      25A     -0.553726    26A     -0.544513    27A     -0.522022  
      28A     -0.518455    29A     -0.497451    30A     -0.467529  
      31A     -0.453147    32A     -0.368830    33A     -0.345051  

    Virtual:                                                              

      34A     -0.011928    35A      0.009664    36A      0.017777  
      37A      0.021660    38A      0.033756    39A      0.046371  
      40A      0.053349    41A      0.063599    42A      0.067210  
      43A      0.080567    44A      0.093272    45A      0.103172  
      46A      0.109779    47A      0.114881    48A      0.126627  
      49A      0.129198    50A      0.135143    51A      0.153451  
      52A      0.178131    53A      0.190205    54A      0.207202  
      55A      0.214229    56A      0.228760    57A      0.237356  
      58A      0.250379    59A      0.251757    60A      0.265882  
      61A      0.277516    62A      0.280094    63A      0.284044  
      64A      0.301638    65A      0.303967    66A      0.323202  
      67A      0.324008    68A      0.335014    69A      0.344462  
      70A      0.355693    71A      0.365546    72A      0.368083  
      73A      0.377026    74A      0.383526    75A      0.392909  
      76A      0.406220    77A      0.423499    78A      0.436358  
      79A      0.449890    80A      0.462639    81A      0.469355  
      82A      0.484384    83A      0.510016    84A      0.535831  
      85A      0.543444    86A      0.602652    87A      0.606629  
      88A      0.630563    89A      0.647825    90A      0.665073  
      91A      0.682609    92A      0.711408    93A      0.714215  
      94A      0.751445    95A      0.768644    96A      0.778154  
      97A      0.939705    98A      0.995190    99A      1.026258  
     100A      1.043875   101A      1.067308   102A      1.102337  
     103A      1.167424   104A      1.200490   105A      1.213918  
     106A      1.225776   107A      1.245056   108A      1.290787  
     109A      1.346758   110A      1.371233   111A      1.379237  
     112A      1.410588   113A      1.426375   114A      1.448880  
     115A      1.467839   116A      1.470730   117A      1.478948  
     118A      1.485420   119A      1.508455   120A      1.516788  
     121A      1.526578   122A      1.545098   123A      1.569415  
     124A      1.583687   125A      1.613289   126A      1.630104  
     127A      1.698240   128A      1.716639   129A      1.734205  
     130A      1.745986   131A      1.775659   132A      1.824712  
     133A      1.868480   134A      1.905290   135A      1.957467  
     136A      1.975029   137A      1.978584   138A      2.016349  
     139A      2.043008   140A      2.061193   141A      2.103042  
     142A      2.133214   143A      2.195774   144A      2.209334  
[...]

   => Composite Functional: M06-2X <= 

    Hybrid M06-2X Meta-GGA XC Functional

    Y. Zhao and D. G. Truhlar,  Theor. Chem. Acc., 120, 215, 2008


    Deriv               =              1
    GGA                 =           TRUE
    Meta                =           TRUE

    Exchange Hybrid     =           TRUE
    MP2 Hybrid          =          FALSE

   => Exchange Functionals <=

    1.0000   XC_HYB_MGGA_X_M06_2X

   => Exact (HF) Exchange <=

    0.5400               HF 

   => Correlation Functionals <=

    1.0000   XC_MGGA_C_M06_2X

   => Molecular Quadrature <=

    Radial Scheme       =       TREUTLER
    Pruning Scheme      =           FLAT
    Nuclear Scheme      =       TREUTLER

    BS radius alpha     =              1
    Pruning alpha       =              1
    Radial Points       =             75
    Spherical Points    =            302
    Total Points        =         294450
    Total Blocks        =           2260
    Max Points          =            256
    Max Functions       =            197


  -Total Gradient:
     Atom            X                  Y                   Z
    ------   -----------------  -----------------  -----------------
       1        0.000026714585    -0.000055742655     0.000050151875
       2        0.000042777770     0.000023763108    -0.000013211294
       3       -0.000099740068     0.000010962289    -0.000044672782
       4       -0.000161657133     0.000107953178     0.000053189080
       5       -0.000003617654     0.000013691815    -0.000021960984
       6       -0.000006185228     0.000008510817     0.000021248146
       7        0.000023427575     0.000013270179    -0.000004922231
       8        0.000000320405     0.000032638008    -0.000003780859
       9        0.000015231496     0.000076276096    -0.000054543242
      10       -0.000003105061    -0.000062413740    -0.000038855657
      11        0.000265470061     0.000100977422    -0.000009499378
      12        0.000010328794    -0.000088315631     0.000026635452
      13        0.000023127290     0.000034480886    -0.000018551357


*** tstop() called on localhost.localdomain at Thu Jan 17 16:27:51 2019
Module time:
	user time   =      71.66 seconds =       1.19 minutes
	system time =       2.42 seconds =       0.04 minutes
	total time  =          5 seconds =       0.08 minutes
Total time:
	user time   =    7372.05 seconds =     122.87 minutes
	system time =     240.97 seconds =       4.02 minutes
	total time  =        518 seconds =       8.63 minutes

			-----------------------------------------
			 OPTKING 2.0: for geometry optimizations 
			  - R.A. King,  Bethel University        
			-----------------------------------------

	Previous internal coordinate definitions found.
	---Fragment 1 Geometry and Gradient---
	 C           0.0126489354       -0.5284377704       -1.5130241464
	 O          -2.0455339096       -0.7970680754       -2.8119312872
	 F           2.0084064512       -0.0452711985        2.4472009615
	 F          -2.0740505810        0.1523015513        2.4113265667
	 H           1.8466004211        5.4994031733       -3.4371282960
	 C           2.2873805864        3.5295265487       -3.0509575123
	 H           2.6473575473        2.5083545182       -4.8084901995
	 H           3.9088629795        3.4065529831       -1.7920068156
	 O           0.1557237153        2.4541449067       -1.7664857660
	 H          -1.5416855712        1.7889484666       -2.8756143156
	 C          -0.0943123907       -0.9549956166        1.3486875395
	 F          -0.1973367543       -3.4286331528        1.8313903929
	 H           1.8258526726       -1.2495681874       -2.2509390997
	             0.0000267146       -0.0000557427        0.0000501519
	             0.0000427778        0.0000237631       -0.0000132113
	            -0.0000997401        0.0000109623       -0.0000446728
	            -0.0001616571        0.0001079532        0.0000531891
	            -0.0000036177        0.0000136918       -0.0000219610
	            -0.0000061852        0.0000085108        0.0000212481
	             0.0000234276        0.0000132702       -0.0000049222
	             0.0000003204        0.0000326380       -0.0000037809
	             0.0000152315        0.0000762761       -0.0000545432
	            -0.0000031051       -0.0000624137       -0.0000388557
	             0.0002654701        0.0001009774       -0.0000094994
	             0.0000103288       -0.0000883156        0.0000266355
	             0.0000231273        0.0000344809       -0.0000185514

	---Fragment 1 Intrafragment Coordinates---
	 - Coordinate -           - BOHR/RAD -       - ANG/DEG -
	 H(2,10)          =         2.635413	       1.394600
	 R(1,2)           =         2.448558	       1.295721
	 R(1,9)           =         2.996750	       1.585812
	 R(1,11)          =         2.895304	       1.532129
	 R(1,13)          =         2.086206	       1.103973
	 R(3,11)          =         2.540818	       1.344543
	 R(4,11)          =         2.504930	       1.325552
	 R(5,6)           =         2.055196	       1.087563
	 R(6,7)           =         2.064291	       1.092376
	 R(6,8)           =         2.056522	       1.088265
	 R(6,9)           =         2.711139	       1.434673
	 R(9,10)          =         2.133975	       1.129251
	 R(11,12)         =         2.522399	       1.334796
	 B(1,9,6)         =         2.062794	     118.189408
	 B(1,9,10)        =         1.261635	      72.286367
	 B(1,11,3)        =         1.921978	     110.121205
	 B(1,11,4)        =         1.964237	     112.542518
	 B(1,11,12)       =         1.912544	     109.580719
	 B(2,1,9)         =         1.675442	      95.995781
	 B(2,1,11)        =         2.068156	     118.496630
	 B(2,1,13)        =         2.100193	     120.332193
	 B(3,11,4)        =         1.888495	     108.202812
	 B(3,11,12)       =         1.877782	     107.589010
	 B(4,11,12)       =         1.896568	     108.665348
	 B(5,6,7)         =         1.930045	     110.583410
	 B(5,6,8)         =         1.919249	     109.964844
	 B(5,6,9)         =         1.876096	     107.492384
	 B(6,9,10)        =         2.097639	     120.185863
	 B(7,6,8)         =         1.932780	     110.740125
	 B(7,6,9)         =         1.922251	     110.136852
	 B(8,6,9)         =         1.881974	     107.829190
	 B(9,1,11)        =         1.804922	     103.414392
	 B(9,1,13)        =         1.846911	     105.820213
	 B(11,1,13)       =         1.907937	     109.316739
	 D(1,9,6,5)       =         2.907055	     166.562000
	 D(1,9,6,7)       =         0.803194	      46.019630
	 D(1,9,6,8)       =        -1.307617	     -74.920913
	 D(2,1,9,6)       =        -2.049471	    -117.426029
	 D(2,1,9,10)      =        -0.036754	      -2.105871
	 D(2,1,11,3)      =        -2.894472	    -165.841006
	 D(2,1,11,4)      =        -0.785837	     -45.025115
	 D(2,1,11,12)     =         1.326471	      76.001183
	 D(3,11,1,9)      =        -1.069275	     -61.264949
	 D(3,11,1,13)     =         0.891949	      51.104937
	 D(4,11,1,9)      =         1.039360	      59.550942
	 D(4,11,1,13)     =         3.000584	     171.920828
	 D(5,6,9,10)      =         1.423971	      81.587542
	 D(6,9,1,11)      =         2.118131	     121.359957
	 D(6,9,1,13)      =         0.112748	       6.459974
	 D(7,6,9,10)      =        -0.679890	     -38.954828
	 D(8,6,9,10)      =        -2.790701	    -159.895370
	 D(9,1,11,12)     =        -3.131518	    -179.422759
	 D(10,9,1,11)     =        -2.152338	    -123.319885
	 D(10,9,1,13)     =         2.125464	     121.780132
	 D(12,11,1,13)    =        -1.170293	     -67.052874

	Current energy   :      -567.2000684653

	Energy change for the previous step:
		Projected    :        -0.0000001399
		Actual       :        -0.0000010228

	Performing Bofill update.
	Previous computed or guess Hessian on step 1.
	Steps to be used in Hessian update: 22 21
	Taking PRFO optimization step.
	Maximizing along 1 lowest eigenvalue of Hessian.

 RFO min eigenvalues
 -0.000000 -0.000000 -0.000000 -0.000000 -0.000000 -0.000000 -0.000000 -0.000000
 -0.000000 -0.000000 -0.000000 -0.000000  0.000000  0.000000  0.000000  0.000000
  0.000000  0.000000  0.000000  0.000000  0.000000  0.000000  0.000000  0.003374
  0.004363  0.010864  0.043146  0.047820  0.071341  0.073802  0.086084  0.095518
  0.099246  0.112437  0.134027  0.159500  0.159686  0.160544  0.165292  0.216037
  0.238045  0.249682  0.250428  0.282751  0.333329  0.342956  0.348198  0.348937
  0.360692  0.417722  0.485743  0.638644  0.879636  1.821505  1.854966

 RFO max eigenvalues
 -0.035406  0.000000
	|RFO target step|  :        0.0032054944
	RFO gradient       :       -0.0000347854
	RFO hessian        :        0.0108516778
	Projected Delta(E) :       -0.0000000558

	Back-transformation to cartesian coordinates...
	Successfully converged to displaced geometry.

	--- Internal Coordinate Step in ANG or DEG, aJ/ANG or AJ/DEG ---
	 ---------------------------------------------------------------------------
	   Coordinate                Previous        Force       Change         New 
	   ----------                --------       ------       ------       ------
	    1 H(2,10)         =      1.394600     0.000228     0.000003     1.394604
	    2 R(1,2)          =      1.295721     0.000034     0.000036     1.295757
	    3 R(1,9)          =      1.585812    -0.000310    -0.000142     1.585670
	    4 R(1,11)         =      1.532129    -0.000099     0.000001     1.532130
	    5 R(1,13)         =      1.103973     0.000010    -0.000001     1.103972
	    6 R(3,11)         =      1.344543     0.000944     0.000048     1.344591
	    7 R(4,11)         =      1.325552    -0.001569    -0.000060     1.325492
	    8 R(5,6)          =      1.087563    -0.000005    -0.000005     1.087558
	    9 R(6,7)          =      1.092376    -0.000007    -0.000003     1.092373
	   10 R(6,8)          =      1.088265    -0.000005    -0.000002     1.088262
	   11 R(6,9)          =      1.434673     0.000117     0.000027     1.434700
	   12 R(9,10)         =      1.129251    -0.000214     0.000027     1.129278
	   13 R(11,12)        =      1.334796    -0.000972    -0.000056     1.334740
	   14 B(1,9,6)        =    118.189408    -0.000001    -0.011342   118.178066
	   15 B(1,9,10)       =     72.286367     0.000001     0.002528    72.288895
	   16 B(1,11,3)       =    110.121205     0.000000    -0.002703   110.118503
	   17 B(1,11,4)       =    112.542518     0.000001     0.000766   112.543284
	   18 B(1,11,12)      =    109.580719     0.000001     0.003150   109.583869
	   19 B(2,1,9)        =     95.995781     0.000001     0.005408    96.001189
	   20 B(2,1,11)       =    118.496630    -0.000000    -0.006565   118.490065
	   21 B(2,1,13)       =    120.332193     0.000001     0.002173   120.334366
	   22 B(3,11,4)       =    108.202812    -0.000001    -0.000630   108.202182
	   23 B(3,11,12)      =    107.589010    -0.000001    -0.000978   107.588032
	   24 B(4,11,12)      =    108.665348    -0.000001     0.000302   108.665650
	   25 B(5,6,7)        =    110.583410     0.000000     0.001064   110.584474
	   26 B(5,6,8)        =    109.964844     0.000000     0.000983   109.965827
	   27 B(5,6,9)        =    107.492384    -0.000000    -0.001954   107.490430
	   28 B(6,9,10)       =    120.185863    -0.000001    -0.023752   120.162111
	   29 B(7,6,8)        =    110.740125     0.000000     0.002096   110.742221
	   30 B(7,6,9)        =    110.136852    -0.000000    -0.002888   110.133964
	   31 B(8,6,9)        =    107.829190    -0.000000     0.000553   107.829743
	   32 B(9,1,11)       =    103.414392    -0.000001     0.000904   103.415296
	   33 B(9,1,13)       =    105.820213     0.000001     0.011343   105.831556
	   34 B(11,1,13)      =    109.316739    -0.000002    -0.007343   109.309396
	   35 D(1,9,6,5)      =    166.562000    -0.000000    -0.008883   166.553116
	   36 D(1,9,6,7)      =     46.019630    -0.000000    -0.007298    46.012332
	   37 D(1,9,6,8)      =    -74.920913    -0.000000    -0.008480   -74.929393
	   38 D(2,1,9,6)      =   -117.426029     0.000000     0.050712  -117.375317
	   39 D(2,1,9,10)     =     -2.105871    -0.000000     0.025911    -2.079961
	   40 D(2,1,11,3)     =   -165.841006    -0.000000    -0.052889  -165.893895
	   41 D(2,1,11,4)     =    -45.025115    -0.000000    -0.055073   -45.080188
	   42 D(2,1,11,12)    =     76.001183    -0.000000    -0.051981    75.949203
	   43 D(3,11,1,9)     =    -61.264949     0.000000    -0.048369   -61.313318
	   44 D(3,11,1,13)    =     51.104937     0.000000    -0.038035    51.066901
	   45 D(4,11,1,9)     =     59.550942     0.000000    -0.050553    59.500389
	   46 D(4,11,1,13)    =    171.920828     0.000000    -0.040220   171.880608
	   47 D(5,6,9,10)     =     81.587542    -0.000000     0.005589    81.593131
	   48 D(6,9,1,11)     =    121.359957     0.000000     0.055591   121.415548
	   49 D(6,9,1,13)     =      6.459974     0.000000     0.058898     6.518872
	   50 D(7,6,9,10)     =    -38.954828    -0.000000     0.007174   -38.947654
	   51 D(8,6,9,10)     =   -159.895370    -0.000000     0.005992  -159.889379
	   52 D(9,1,11,12)    =   -179.422759     0.000000    -0.047461  -179.470220
	   53 D(10,9,1,11)    =   -123.319885    -0.000000     0.030789  -123.289095
	   54 D(10,9,1,13)    =    121.780132     0.000000     0.034096   121.814228
	   55 D(12,11,1,13)   =    -67.052874     0.000000    -0.037127   -67.090001
	 ---------------------------------------------------------------------------
	Successfully symmetrized geometry.

  ==> Convergence Check <==

  Measures of convergence in internal coordinates in au.
  Criteria marked as inactive (o), active & met (*), and active & unmet ( ).
  ---------------------------------------------------------------------------------------------
   Step     Total Energy     Delta E     MAX Force     RMS Force      MAX Disp      RMS Disp   
  ---------------------------------------------------------------------------------------------
    Convergence Criteria    1.00e-06 *    3.00e-04 *             o    1.20e-03 *             o
  ---------------------------------------------------------------------------------------------
     23    -567.20006847   -1.02e-06      1.90e-04 *    3.59e-05 o    1.03e-03 *    4.32e-04 o  ~
  ---------------------------------------------------------------------------------------------


  **** Optimization is complete! (in 23 steps) ****

  ==> Optimization Summary <==

  Measures of convergence in internal coordinates in au.
  --------------------------------------------------------------------------------------------------------------- ~
   Step         Total Energy             Delta E       MAX Force       RMS Force        MAX Disp        RMS Disp  ~
  --------------------------------------------------------------------------------------------------------------- ~
      1    -566.900344865406   -566.900344865406      0.56714156      0.13277055      0.17658050      0.04311706  ~
      2    -567.108892991814     -0.208548126407      0.24308643      0.05661103      0.14209131      0.03926964  ~
      3    -567.178641975119     -0.069748983305      0.10303902      0.02318755      0.06998316      0.02366592  ~
      4    -567.194212895131     -0.015570920012      0.05060149      0.01100756      0.05254589      0.01619730  ~
      5    -567.199105763299     -0.004892868168      0.01925638      0.00380110      0.03841407      0.01711997  ~
      6    -567.199983348717     -0.000877585418      0.00547978      0.00106513      0.03199951      0.00969015  ~
      7    -567.200164873546     -0.000181524828      0.00446797      0.00112778      0.14153880      0.04317292  ~
      8    -567.199575558939      0.000589314607      0.00512937      0.00172396      0.05322327      0.01687083  ~
      9    -567.199918416485     -0.000342857546      0.00326632      0.00102200      0.06776035      0.02201344  ~
     10    -567.199963535966     -0.000045119481      0.00393060      0.00093970      0.03980866      0.01316883  ~
     11    -567.199939951412      0.000023584553      0.00220742      0.00062095      0.01052275      0.00463807  ~
     12    -567.199973116862     -0.000033165450      0.00188120      0.00048643      0.02779732      0.01145767  ~
     13    -567.200025403711     -0.000052286848      0.00167055      0.00039840      0.02846700      0.00886600  ~
     14    -567.200049806945     -0.000024403234      0.00129113      0.00027940      0.02714550      0.00887998  ~
     15    -567.200064113880     -0.000014306935      0.00118187      0.00023229      0.02002266      0.00784386  ~
     16    -567.200065832390     -0.000001718510      0.00063280      0.00013999      0.00382694      0.00157343  ~
     17    -567.200068178025     -0.000002345635      0.00047387      0.00012845      0.01395565      0.00659113  ~
     18    -567.200066068445      0.000002109579      0.00077468      0.00015377      0.00659782      0.00285046  ~
     19    -567.200066858481     -0.000000790036      0.00037561      0.00009690      0.00886502      0.00358489  ~
     20    -567.200065398028      0.000001460452      0.00058866      0.00010933      0.00565706      0.00191395  ~
     21    -567.200066306659     -0.000000908631      0.00036442      0.00006284      0.00374286      0.00126116  ~
     22    -567.200067442536     -0.000001135877      0.00029549      0.00005226      0.00182777      0.00077416  ~
     23    -567.200068465304     -0.000001022767      0.00019039      0.00003591      0.00102796      0.00043223  ~
  --------------------------------------------------------------------------------------------------------------- ~

	Writing optimization data to binary file.
	Final energy is   -567.2000684653036
	Final (previous) structure:
	Cartesian Geometry (in Angstrom)
	    C     0.0066935283  -0.2796372243  -0.8006578943
	    O    -1.0824499244  -0.4217902592  -1.4880099493
	    F     1.0628029196  -0.0239564865   1.2950029737
	    F    -1.0975402969   0.0805945098   1.2760190616
	    H     0.9771788562   2.9101588202  -1.8188499572
	    C     1.2104296737   1.8677450067  -1.6144971799
	    H     1.4009212770   1.3273640421  -2.5445434213
	    H     2.0684812003   1.8026701985  -0.9482891645
	    O     0.0824054410   1.2986775512  -0.9347840067
	    H    -0.8158248671   0.9466707559  -1.5217095565
	    C    -0.0499079677  -0.5053619146   0.7136947074
	    F    -0.1044261128  -1.8143545211   0.9691300560
	    H     0.9661996206  -0.6612430053  -1.1911456695
	Saving final (previous) structure.
	Removing binary optimization data file.
			--------------------------
			 OPTKING Finished Execution 
			--------------------------

    Final optimized geometry and variables:
    Molecular point group: c1
    Full point group: C1

    Geometry (in Angstrom), charge = 0, multiplicity = 1:

    C            0.006693528323    -0.279637224262    -0.800657894312
    O           -1.082449924363    -0.421790259210    -1.488009949304
    F            1.062802919574    -0.023956486458     1.295002973653
    F           -1.097540296949     0.080594509799     1.276019061556
    H            0.977178856231     2.910158820172    -1.818849957232
    C            1.210429673681     1.867745006711    -1.614497179894
    H            1.400921277045     1.327364042081    -2.544543421282
    H            2.068481200267     1.802670198536    -0.948289164455
    O            0.082405440961     1.298677551225    -0.934784006658
    H           -0.815824867107     0.946670755852    -1.521709556490
    C           -0.049907967661    -0.505361914600     0.713694707408
    F           -0.104426112788    -1.814354521104     0.969130055961
    H            0.966199620589    -0.661243005328    -1.191145669509

	Removing binary optimization data file.
	Cleaning optimization helper files.

    Psi4 stopped on: Thursday, 17 January 2019 04:27PM
    Psi4 wall time for execution: 0:08:38.30

*** Psi4 exiting successfully. Buy a developer a beer!
