
    -----------------------------------------------------------------------
          Psi4: An Open-Source Ab Initio Electronic Structure Package
                               Psi4 1.2.1 release

                         Git: Rev {HEAD} 406f4de 


    R. M. Parrish, L. A. Burns, D. G. A. Smith, A. C. Simmonett,
    A. E. DePrince III, E. G. Hohenstein, U. Bozkaya, A. Yu. Sokolov,
    R. Di Remigio, R. M. Richard, J. F. Gonthier, A. M. James,
    H. R. McAlexander, A. Kumar, M. Saitow, X. Wang, B. P. Pritchard,
    P. Verma, H. F. Schaefer III, K. Patkowski, R. A. King, E. F. Valeev,
    F. A. Evangelista, J. M. Turney, T. D. Crawford, and C. D. Sherrill,
    J. Chem. Theory Comput. 13(7) pp 3185--3197 (2017).
    (doi: 10.1021/acs.jctc.7b00174)


                         Additional Contributions by
    P. Kraus, H. Kruse, M. H. Lechner, M. C. Schieber, and R. A. Shaw

    -----------------------------------------------------------------------


    Psi4 started on: Thursday, 17 January 2019 01:11PM

    Process ID: 11730
    Host:       localhost.localdomain
    PSIDATADIR: /root/psi4conda/share/psi4
    Memory:     500.0 MiB
    Threads:    1
    
  ==> Input File <==

--------------------------------------------------------------------------

molecule{
0 1
C     -0.108048   -0.645236    0.050654
O     -1.120282   -0.619961   -0.731157
O      0.225504    0.911684   -0.083940
H     -0.718435    0.657922   -0.701050
H      1.355440    2.315564   -1.044552
C      1.408542    1.254452   -0.810960
H      1.473575    0.670673   -1.733349
H      2.273373    1.062369   -0.177825
Br    -0.343774   -0.817235    1.371281
H      0.812505   -1.184592   -0.204078 
}

basis {
  assign 6-311ppgss
  assign Br def2-tzvpp
}


set{
   freeze_core True
   opt_type ts
}


set_num_threads(16)
optimize('m06-2x')
--------------------------------------------------------------------------
  Threads set to 16 by Python driver.
gradient() will perform analytic gradient computation.

*** tstart() called on localhost.localdomain
*** at Thu Jan 17 13:11:52 2019

   => Loading Basis Set <=

    Name: ANONYMOUS50098001
    Role: ORBITAL
    Keyword: BASIS
    atoms 1, 6         entry C          line   119 file /root/psi4conda/share/psi4/basis/6-311ppgss.gbs 
    atoms 2-3          entry O          line   161 file /root/psi4conda/share/psi4/basis/6-311ppgss.gbs 
    atoms 4-5, 7-8, 10 entry H          line    42 file /root/psi4conda/share/psi4/basis/6-311ppgss.gbs 
    atoms 9            entry BR         line  1545 file /root/psi4conda/share/psi4/basis/def2-tzvpp.gbs 


         ---------------------------------------------------------
                                   SCF
            by Justin Turney, Rob Parrish, Andy Simmonett
                             and Daniel Smith
                              RKS Reference
                       16 Threads,    500 MiB Core
         ---------------------------------------------------------

  ==> Geometry <==

    Molecular point group: c1
    Full point group: C1

    Geometry (in Angstrom), charge = 0, multiplicity = 1:

       Center              X                  Y                   Z               Mass       
    ------------   -----------------  -----------------  -----------------  -----------------
         C            0.039142570521    -0.295328152914    -0.536474704659    12.000000000000
         O           -0.973091429479    -0.270053152914    -1.318285704659    15.994914619560
         O            0.372694570521     1.261591847086    -0.671068704659    15.994914619560
         H           -0.571244429479     1.007829847086    -1.288178704659     1.007825032070
         H            1.502630570521     2.665471847086    -1.631680704659     1.007825032070
         C            1.555732570521     1.604359847086    -1.398088704659    12.000000000000
         H            1.620765570521     1.020580847086    -2.320477704659     1.007825032070
         H            2.420563570521     1.412276847086    -0.764953704659     1.007825032070
         BR          -0.196583429479    -0.467327152914     0.784152295341    78.918337087000
         H            0.959695570521    -0.834684152914    -0.791206704659     1.007825032070

  Running in c1 symmetry.

  Rotational constants: A =      0.24551  B =      0.07930  C =      0.06478 [cm^-1]
  Rotational constants: A =   7360.16724  B =   2377.34730  C =   1941.96075 [MHz]
  Nuclear repulsion =  401.279185545119788

  Charge       = 0
  Multiplicity = 1
  Electrons    = 68
  Nalpha       = 34
  Nbeta        = 34

  ==> Algorithm <==

  SCF Algorithm Type is DF.
  DIIS enabled.
  MOM disabled.
  Fractional occupation disabled.
  Guess Type is SAD.
  Energy threshold   = 1.00e-08
  Density threshold  = 1.00e-08
  Integral threshold = 0.00e+00

  ==> Primary Basis <==

  Basis Set: ANONYMOUS50098001
    Blend: 6-311PPGSS + DEF2-TZVPP
    Number of shells: 81
    Number of basis function: 171
    Number of Cartesian functions: 182
    Spherical Harmonics?: true
    Max angular momentum: 3

  ==> DFT Potential <==

   => Composite Functional: M06-2X <= 

    Hybrid M06-2X Meta-GGA XC Functional

    Y. Zhao and D. G. Truhlar,  Theor. Chem. Acc., 120, 215, 2008


    Deriv               =              1
    GGA                 =           TRUE
    Meta                =           TRUE

    Exchange Hybrid     =           TRUE
    MP2 Hybrid          =          FALSE

   => Exchange Functionals <=

    1.0000   XC_HYB_MGGA_X_M06_2X

   => Exact (HF) Exchange <=

    0.5400               HF 

   => Correlation Functionals <=

    1.0000   XC_MGGA_C_M06_2X

   => Molecular Quadrature <=

    Radial Scheme       =       TREUTLER
    Pruning Scheme      =           FLAT
    Nuclear Scheme      =       TREUTLER

    BS radius alpha     =              1
    Pruning alpha       =              1
    Radial Points       =             75
    Spherical Points    =            302
    Total Points        =         226303
    Total Blocks        =           1750
    Max Points          =            256
    Max Functions       =            165

   => Loading Basis Set <=

    Name: (ANONYMOUS50098001 AUX)
    Role: JKFIT
    Keyword: DF_BASIS_SCF
    atoms 1, 6         entry C          line   162 file /root/psi4conda/share/psi4/basis/aug-cc-pvtz-jkfit.gbs 
    atoms 2-3          entry O          line   286 file /root/psi4conda/share/psi4/basis/aug-cc-pvtz-jkfit.gbs 
    atoms 4-5, 7-8, 10 entry H          line    70 file /root/psi4conda/share/psi4/basis/aug-cc-pvtz-jkfit.gbs 
    atoms 9            entry BR         line  3129 file /root/psi4conda/share/psi4/basis/def2-tzvpp-jkfit.gbs 

  ==> Pre-Iterations <==

   -------------------------------------------------------
    Irrep   Nso     Nmo     Nalpha   Nbeta   Ndocc  Nsocc
   -------------------------------------------------------
     A        171     171       0       0       0       0
   -------------------------------------------------------
    Total     171     171      34      34      34       0
   -------------------------------------------------------

  ==> Integral Setup <==

  DFHelper Memory: AOs need 0.256 [GiB]; user supplied 0.366 [GiB]. Using in-core AOs.

  ==> MemDFJK: Density-Fitted J/K Matrices <==

    J tasked:                   Yes
    K tasked:                   Yes
    wK tasked:                   No
    OpenMP threads:              16
    Memory (MB):                375
    Algorithm:                 Core
    Schwarz Cutoff:           1E-12
    Mask sparsity (%):       2.4897
    Fitting Condition:        1E-12

   => Auxiliary Basis Set <=

  Basis Set: (ANONYMOUS50098001 AUX)
    Blend: AUG-CC-PVTZ-JKFIT + DEF2-TZVPP-JKFIT
    Number of shells: 250
    Number of basis function: 912
    Number of Cartesian functions: 1170
    Spherical Harmonics?: true
    Max angular momentum: 5

  Minimum eigenvalue in the overlap matrix is 4.5603819463E-04.
  Using Symmetric Orthogonalization.

  SCF Guess: Superposition of Atomic Densities via on-the-fly atomic UHF.

  ==> Iterations <==

                           Total Energy        Delta E     RMS |[F,P]|

   @DF-RKS iter   0: -2805.76052803126231   -2.80576e+03   1.20272e-01 
   @DF-RKS iter   1: -2803.25429262862644    2.50624e+00   2.01260e-02 
   @DF-RKS iter   2: -2803.29717077543228   -4.28781e-02   1.52484e-02 DIIS
   @DF-RKS iter   3: -2803.41578066340753   -1.18610e-01   3.49451e-03 DIIS
   @DF-RKS iter   4: -2803.42578335119833   -1.00027e-02   6.90584e-04 DIIS
   @DF-RKS iter   5: -2803.42612265862908   -3.39307e-04   3.18501e-04 DIIS
   @DF-RKS iter   6: -2803.42621973157384   -9.70729e-05   6.90051e-05 DIIS
   @DF-RKS iter   7: -2803.42622571287484   -5.98130e-06   1.21595e-05 DIIS
   @DF-RKS iter   8: -2803.42622609868204   -3.85807e-07   4.48247e-06 DIIS
   @DF-RKS iter   9: -2803.42622612707373   -2.83917e-08   1.12261e-06 DIIS
   @DF-RKS iter  10: -2803.42622612986588   -2.79215e-09   3.71235e-07 DIIS
   @DF-RKS iter  11: -2803.42622613014328   -2.77396e-10   1.53271e-07 DIIS
   @DF-RKS iter  12: -2803.42622613018511   -4.18368e-11   5.31655e-08 DIIS
   @DF-RKS iter  13: -2803.42622613018966   -4.54747e-12   1.46500e-08 DIIS
   @DF-RKS iter  14: -2803.42622613018784    1.81899e-12   5.50704e-09 DIIS

  ==> Post-Iterations <==

    Orbital Energies [Eh]
    ---------------------

    Doubly Occupied:                                                      

       1A   -485.373788     2A    -63.369976     3A    -57.185853  
       4A    -57.185187     5A    -57.184736     6A    -19.681848  
       7A    -19.574352     8A    -10.669558     9A    -10.613832  
      10A     -9.048825    11A     -6.875938    12A     -6.863920  
      13A     -6.862201    14A     -2.912927    15A     -2.904371  
      16A     -2.902937    17A     -2.894264    18A     -2.894253  
      19A     -1.266586    20A     -1.141783    21A     -1.038362  
      22A     -0.828019    23A     -0.707296    24A     -0.655365  
      25A     -0.607407    26A     -0.589085    27A     -0.550669  
      28A     -0.518517    29A     -0.483497    30A     -0.465037  
      31A     -0.374051    32A     -0.343811    33A     -0.338962  
      34A     -0.320496  

    Virtual:                                                              

      35A     -0.008410    36A      0.011837    37A      0.023546  
      38A      0.027917    39A      0.047492    40A      0.057514  
      41A      0.067825    42A      0.074265    43A      0.086752  
      44A      0.095827    45A      0.113084    46A      0.121912  
      47A      0.129965    48A      0.137499    49A      0.162658  
      50A      0.178044    51A      0.193045    52A      0.196047  
      53A      0.207426    54A      0.220214    55A      0.234627  
      56A      0.244289    57A      0.254410    58A      0.286233  
      59A      0.290324    60A      0.303927    61A      0.315809  
      62A      0.322098    63A      0.363351    64A      0.370824  
      65A      0.380514    66A      0.402653    67A      0.415113  
      68A      0.440558    69A      0.460551    70A      0.480325  
      71A      0.493231    72A      0.516439    73A      0.535812  
      74A      0.550071    75A      0.570945    76A      0.602233  
      77A      0.648727    78A      0.670455    79A      0.680853  
      80A      0.694636    81A      0.712079    82A      0.780976  
      83A      0.848544    84A      0.908750    85A      0.975866  
      86A      1.008937    87A      1.049665    88A      1.062965  
      89A      1.102076    90A      1.167701    91A      1.170407  
      92A      1.202068    93A      1.224250    94A      1.267012  
      95A      1.323789    96A      1.345575    97A      1.369319  
      98A      1.385439    99A      1.418275   100A      1.425255  
     101A      1.455377   102A      1.489336   103A      1.499553  
     104A      1.528960   105A      1.551430   106A      1.556597  
     107A      1.585451   108A      1.616081   109A      1.628594  
     110A      1.657200   111A      1.663856   112A      1.688992  
     113A      1.718416   114A      1.732107   115A      1.753935  
     116A      1.763700   117A      1.790629   118A      1.865346  
     119A      1.908507   120A      1.941515   121A      1.991135  
     122A      2.047482   123A      2.105397   124A      2.153304  
     125A      2.196131   126A      2.256048   127A      2.339614  
     128A      2.370561   129A      2.449336   130A      2.460047  
     131A      2.528240   132A      2.550166   133A      2.574410  
     134A      2.609483   135A      2.628428   136A      2.685341  
     137A      2.736586   138A      2.787074   139A      2.868644  
     140A      2.945198   141A      2.960957   142A      3.018682  
     143A      3.162379   144A      3.180848   145A      3.288256  
     146A      3.401435   147A      3.579152   148A      3.601537  
     149A      3.740288   150A      3.803191   151A      3.828345  
     152A      3.912321   153A      3.991502   154A      4.059785  
     155A      4.085860   156A      4.101335   157A      4.155834  
     158A      4.291828   159A      4.338753   160A      4.439410  
     161A      5.244877   162A      5.281772   163A      5.341959  
     164A      5.354231   165A      5.689541   166A      5.907807  
     167A      8.138284   168A     23.968527   169A     24.535158  
     170A     49.999002   171A     50.163512  

    Final Occupation by Irrep:
              A 
    DOCC [    34 ]

  Energy converged.

  @DF-RKS Final Energy: -2803.42622613018784

   => Energetics <=

    Nuclear Repulsion Energy =            401.2791855451197875
    One-Electron Energy =               -4693.2254361408231489
    Two-Electron Energy =                1546.0886173014346241
    DFT Exchange-Correlation Energy =     -57.5685928359186505
    Empirical Dispersion Energy =           0.0000000000000000
    VV10 Nonlocal Energy =                  0.0000000000000000
    Total Energy =                      -2803.4262261301873878



Properties will be evaluated at   0.000000,   0.000000,   0.000000 [a0]

Properties computed using the SCF density matrix

  Nuclear Dipole Moment: [e a0]
     X:     7.2151      Y:     8.8846      Z:   -12.9888

  Electronic Dipole Moment: [e a0]
     X:    -5.8426      Y:    -8.2442      Z:    13.0025

  Dipole Moment: [e a0]
     X:     1.3725      Y:     0.6404      Z:     0.0137     Total:     1.5146

  Dipole Moment: [D]
     X:     3.4886      Y:     1.6278      Z:     0.0347     Total:     3.8498


*** tstop() called on localhost.localdomain at Thu Jan 17 13:12:05 2019
Module time:
	user time   =     171.28 seconds =       2.85 minutes
	system time =       3.22 seconds =       0.05 minutes
	total time  =         13 seconds =       0.22 minutes
Total time:
	user time   =     171.28 seconds =       2.85 minutes
	system time =       3.22 seconds =       0.05 minutes
	total time  =         13 seconds =       0.22 minutes

*** tstart() called on localhost.localdomain
*** at Thu Jan 17 13:12:05 2019


         ------------------------------------------------------------
                                   SCF GRAD                          
                          Rob Parrish, Justin Turney,                
                       Andy Simmonett, and Alex Sokolov              
         ------------------------------------------------------------

  ==> Geometry <==

    Molecular point group: c1
    Full point group: C1

    Geometry (in Angstrom), charge = 0, multiplicity = 1:

       Center              X                  Y                   Z               Mass       
    ------------   -----------------  -----------------  -----------------  -----------------
         C            0.039142570521    -0.295328152914    -0.536474704659    12.000000000000
         O           -0.973091429479    -0.270053152914    -1.318285704659    15.994914619560
         O            0.372694570521     1.261591847086    -0.671068704659    15.994914619560
         H           -0.571244429479     1.007829847086    -1.288178704659     1.007825032070
         H            1.502630570521     2.665471847086    -1.631680704659     1.007825032070
         C            1.555732570521     1.604359847086    -1.398088704659    12.000000000000
         H            1.620765570521     1.020580847086    -2.320477704659     1.007825032070
         H            2.420563570521     1.412276847086    -0.764953704659     1.007825032070
         BR          -0.196583429479    -0.467327152914     0.784152295341    78.918337087000
         H            0.959695570521    -0.834684152914    -0.791206704659     1.007825032070

  Nuclear repulsion =  401.279185545119788

  ==> Basis Set <==

  Basis Set: ANONYMOUS50098001
    Blend: 6-311PPGSS + DEF2-TZVPP
    Number of shells: 81
    Number of basis function: 171
    Number of Cartesian functions: 182
    Spherical Harmonics?: true
    Max angular momentum: 3

  ==> DFJKGrad: Density-Fitted SCF Gradients <==

    Gradient:                    1
    J tasked:                  Yes
    K tasked:                  Yes
    wK tasked:                  No
    OpenMP threads:             16
    Integrals threads:          16
    Memory (MB):               375
    Schwarz Cutoff:          0E+00
    Fitting Condition:       1E-12

   => Auxiliary Basis Set <=

  Basis Set: (ANONYMOUS50098001 AUX)
    Blend: AUG-CC-PVTZ-JKFIT + DEF2-TZVPP-JKFIT
    Number of shells: 250
    Number of basis function: 912
    Number of Cartesian functions: 1170
    Spherical Harmonics?: true
    Max angular momentum: 5

  ==> DFT Potential <==

   => Composite Functional: M06-2X <= 

    Hybrid M06-2X Meta-GGA XC Functional

    Y. Zhao and D. G. Truhlar,  Theor. Chem. Acc., 120, 215, 2008


    Deriv               =              1
    GGA                 =           TRUE
    Meta                =           TRUE

    Exchange Hybrid     =           TRUE
    MP2 Hybrid          =          FALSE

   => Exchange Functionals <=

    1.0000   XC_HYB_MGGA_X_M06_2X

   => Exact (HF) Exchange <=

    0.5400               HF 

   => Correlation Functionals <=

    1.0000   XC_MGGA_C_M06_2X

   => Molecular Quadrature <=

    Radial Scheme       =       TREUTLER
    Pruning Scheme      =           FLAT
    Nuclear Scheme      =       TREUTLER

    BS radius alpha     =              1
    Pruning alpha       =              1
    Radial Points       =             75
    Spherical Points    =            302
    Total Points        =         226303
    Total Blocks        =           1750
    Max Points          =            256
    Max Functions       =            165


  -Total Gradient:
     Atom            X                  Y                   Z
    ------   -----------------  -----------------  -----------------
       1       -0.176198422699    -0.069892974731     0.752978187339
       2        0.043057299812    -0.014441456854     0.076990868636
       3       -0.023229499028    -0.049177865489     0.038504677887
       4        0.001425904261     0.004832283845     0.004392836247
       5       -0.001562924277    -0.000730885658     0.000543247689
       6        0.004405839167    -0.003915791981     0.002186756192
       7        0.000169949787    -0.000108708823    -0.000371330016
       8       -0.000500385616     0.000472464797    -0.000777294380
       9        0.164279563940     0.141640095975    -0.914676776277
      10       -0.011483701985    -0.008610175722     0.039191333231


*** tstop() called on localhost.localdomain at Thu Jan 17 13:12:10 2019
Module time:
	user time   =      58.59 seconds =       0.98 minutes
	system time =       2.36 seconds =       0.04 minutes
	total time  =          5 seconds =       0.08 minutes
Total time:
	user time   =     229.90 seconds =       3.83 minutes
	system time =       5.58 seconds =       0.09 minutes
	total time  =         18 seconds =       0.30 minutes

			-----------------------------------------
			 OPTKING 2.0: for geometry optimizations 
			  - R.A. King,  Bethel University        
			-----------------------------------------

	Internal coordinates to be generated automatically.
	Detected frag 1 with atoms:  1 2 3 4 5 6 7 8 9 10
	---Fragment 1 Bond Connectivity---
	 1 : 2 3 9 10
	 2 : 1 9
	 3 : 1 4 6 9
	 4 : 3
	 5 : 6
	 6 : 3 5 7 8
	 7 : 6
	 8 : 6
	 9 : 1 2 3
	 10 : 1

	---Fragment 1 Geometry and Gradient---
	 C           0.0739687384       -0.5580893283       -1.0137902690
	 O          -1.8388763040       -0.5103265003       -2.4911989467
	 O           0.7042906695        2.3840630825       -1.2681360682
	 H          -1.0794955267        1.9045223995       -2.4343049620
	 H           2.8395602572        5.0370118059       -3.0834296681
	 C           2.9399084943        3.0318007296       -2.6420047613
	 H           3.0628030539        1.9286182975       -4.3850673593
	 H           4.5742022355        2.6688164648       -1.4455530061
	 BR         -0.3714888440       -0.8831203335        1.4818330847
	 H           1.8135617992       -1.5773244565       -1.4951639863
	            -0.1761984227       -0.0698929747        0.7529781873
	             0.0430572998       -0.0144414569        0.0769908686
	            -0.0232294990       -0.0491778655        0.0385046779
	             0.0014259043        0.0048322838        0.0043928362
	            -0.0015629243       -0.0007308857        0.0005432477
	             0.0044058392       -0.0039157920        0.0021867562
	             0.0001699498       -0.0001087088       -0.0003713300
	            -0.0005003856        0.0004724648       -0.0007772944
	             0.1642795639        0.1416400960       -0.9146767763
	            -0.0114837020       -0.0086101757        0.0391913332

	Previous optimization step data not found.  Starting new optimization.

	---Fragment 1 Intrafragment Coordinates---
	 - Coordinate -           - BOHR/RAD -       - ANG/DEG -
	 H(2,4)           =         2.532073	       1.339915
	 R(1,2)           =         2.417435	       1.279252
	 R(1,3)           =         3.019645	       1.597928
	 R(1,9)           =         2.555820	       1.352481
	 R(1,10)          =         2.072859	       1.096910
	 R(2,9)           =         4.251727	       2.249917
	 R(3,4)           =         2.184446	       1.155959
	 R(3,6)           =         2.702789	       1.430254
	 R(3,9)           =         4.403875	       2.330431
	 R(5,6)           =         2.055674	       1.087816
	 R(6,7)           =         2.066490	       1.093540
	 R(6,8)           =         2.057710	       1.088893
	 B(1,2,9)         =         0.562530	      32.230579
	 B(1,3,4)         =         1.224539	      70.160936
	 B(1,3,6)         =         2.036421	     116.678306
	 B(1,3,9)         =         0.598046	      34.265508
	 B(1,9,2)         =         0.528746	      30.294910
	 B(1,9,3)         =         0.727770	      41.698141
	 B(2,1,3)         =         1.665380	      95.419224
	 B(2,1,9)         =         2.050317	     117.474511
	 B(2,1,10)        =         2.131572	     122.130077
	 B(2,9,3)         =         0.971268	      55.649569
	 B(3,1,9)         =         1.815777	     104.036352
	 B(3,1,10)        =         1.859120	     106.519753
	 B(3,6,5)         =         1.878161	     107.610679
	 B(3,6,7)         =         1.928379	     110.487988
	 B(3,6,8)         =         1.895591	     108.609351
	 B(4,3,6)         =         2.045063	     117.173473
	 B(4,3,9)         =         1.541813	      88.339388
	 B(5,6,7)         =         1.920389	     110.030180
	 B(5,6,8)         =         1.913144	     109.615071
	 B(6,3,9)         =         2.342376	     134.208246
	 B(7,6,8)         =         1.927344	     110.428690
	 B(9,1,10)        =         1.886511	     108.089090
	 D(1,2,9,3)       =         0.898235	      51.465046
	 D(1,3,6,5)       =         2.879037	     164.956651
	 D(1,3,6,7)       =         0.782069	      44.809241
	 D(1,3,6,8)       =        -1.334385	     -76.454640
	 D(1,3,9,2)       =        -0.635020	     -36.383937
	 D(1,9,3,4)       =         0.975839	      55.911471
	 D(1,9,3,6)       =        -1.249978	     -71.618442
	 D(2,1,3,4)       =         0.030406	       1.742164
	 D(2,1,3,6)       =        -1.910862	    -109.484340
	 D(2,1,3,9)       =         2.096018	     120.092991
	 D(2,1,9,3)       =        -1.812879	    -103.870344
	 D(2,9,1,3)       =         1.812879	     103.870344
	 D(2,9,1,10)      =        -2.498881	    -143.175324
	 D(2,9,3,4)       =         0.340820	      19.527534
	 D(2,9,3,6)       =        -1.884997	    -108.002379
	 D(3,1,2,9)       =        -1.900674	    -108.900586
	 D(3,9,1,10)      =         1.971425	     112.954332
	 D(4,3,1,9)       =        -2.065612	    -118.350827
	 D(4,3,1,10)      =         2.226538	     127.571218
	 D(4,3,6,5)       =         1.478049	      84.685945
	 D(4,3,6,7)       =        -0.618919	     -35.461465
	 D(4,3,6,8)       =        -2.735373	    -156.725346
	 D(5,6,3,9)       =        -2.763196	    -158.319457
	 D(6,3,1,9)       =         2.276305	     130.422669
	 D(6,3,1,10)      =         0.285269	      16.344714
	 D(7,6,3,9)       =         1.423022	      81.533133
	 D(8,6,3,9)       =        -0.693432	     -39.730748
	 D(9,2,1,10)      =         2.403624	     137.717497
	 D(9,3,1,10)      =        -1.991036	    -114.077955

	Current energy   :     -2803.4262261302

	Generating empirical Hessian (Schlegel '84) for each fragment.
	Taking PRFO optimization step.
	Maximizing along 1 lowest eigenvalue of Hessian.

 RFO min eigenvalues
 -0.081689 -0.000000 -0.000000 -0.000000 -0.000000 -0.000000 -0.000000 -0.000000
 -0.000000 -0.000000 -0.000000 -0.000000 -0.000000 -0.000000 -0.000000 -0.000000
 -0.000000 -0.000000 -0.000000 -0.000000 -0.000000 -0.000000 -0.000000  0.000000
  0.000000  0.000000  0.000000  0.000000  0.000000  0.000000  0.000000  0.000000
  0.000000  0.000000  0.000000  0.000000  0.000000  0.000000  0.000000  0.000946
  0.007965  0.023713  0.055704  0.055958  0.058843  0.064031  0.080057  0.095561
  0.113787  0.139885  0.158730  0.160000  0.160000  0.160091  0.195655  0.275759
  0.340797  0.344068  0.349411  0.350664  0.409528  0.498420  8.436444

 RFO max eigenvalues
 -0.000000  0.000000
	|RFO target step|  :        0.4129278636
	RFO gradient       :       -0.1978290966
	RFO hessian        :        0.4090452359
	Projected Delta(E) :       -0.0399963574

	Back-transformation to cartesian coordinates...
	Could not converge backtransformation.
	Using first guess instead.

	--- Internal Coordinate Step in ANG or DEG, aJ/ANG or AJ/DEG ---
	 ---------------------------------------------------------------------------
	   Coordinate                Previous        Force       Change         New 
	   ----------                --------       ------       ------       ------
	    1 H(2,4)          =      1.339915    -0.008278    -0.004362     1.335554
	    2 R(1,2)          =      1.279252    -0.815924     0.036594     1.315846
	    3 R(1,3)          =      1.597928    -0.528313     0.040594     1.638521
	    4 R(1,9)          =      1.352481     4.021795     0.031484     1.383966
	    5 R(1,10)         =      1.096910     0.120251     0.023204     1.120113
	    6 R(2,9)          =      2.249917     2.031866     0.072253     2.322170
	    7 R(3,4)          =      1.155959     0.033860     0.006126     1.162085
	    8 R(3,6)          =      1.430254    -0.000051     0.000022     1.430276
	    9 R(3,9)          =      2.330431     1.695163     0.096325     2.426756
	   10 R(5,6)          =      1.087816     0.006609     0.001072     1.088888
	   11 R(6,7)          =      1.093540    -0.002857    -0.000371     1.093169
	   12 R(6,8)          =      1.088893     0.007484     0.001136     1.090030
	   13 B(1,2,9)        =     32.230579     0.008143    -0.692513    31.538066
	   14 B(1,3,4)        =     70.160936    -0.001882    -0.188519    69.972418
	   15 B(1,3,6)        =    116.678306    -0.004688     1.264959   117.943266
	   16 B(1,3,9)        =     34.265508     0.008285    -1.119462    33.146045
	   17 B(1,9,2)        =     30.294910    -0.002767    -0.472104    29.822806
	   18 B(1,9,3)        =     41.698141    -0.003553    -1.356455    40.341686
	   19 B(2,1,3)        =     95.419224     0.004451    -2.152955    93.266269
	   20 B(2,1,9)        =    117.474511    -0.005376     1.164617   118.639128
	   21 B(2,1,10)       =    122.130077     0.000801    -4.939552   117.190525
	   22 B(2,9,3)        =     55.649569    -0.004426    -1.618084    54.031485
	   23 B(3,1,9)        =    104.036352    -0.004732     2.475917   106.512269
	   24 B(3,1,10)       =    106.519753     0.000063    -4.087698   102.432055
	   25 B(3,6,5)        =    107.610679     0.000197     0.651493   108.262172
	   26 B(3,6,7)        =    110.487988    -0.000034    -0.117513   110.370475
	   27 B(3,6,8)        =    108.609351    -0.000068    -0.239980   108.369371
	   28 B(4,3,6)        =    117.173473    -0.000764    -0.485531   116.687941
	   29 B(4,3,9)        =     88.339388     0.001896    -0.866177    87.473211
	   30 B(5,6,7)        =    110.030180    -0.000054    -0.111547   109.918633
	   31 B(5,6,8)        =    109.615071    -0.000054    -0.154108   109.460963
	   32 B(6,3,9)        =    134.208246     0.000515     1.202944   135.411189
	   33 B(7,6,8)        =    110.428690     0.000016    -0.016642   110.412047
	   34 B(9,1,10)       =    108.089090     0.004102     5.975782   114.064872
	   35 D(1,2,9,3)      =     51.465046    -0.000306    -0.343932    51.121115
	   36 D(1,3,6,5)      =    164.956651    -0.000920     0.519520   165.476170
	   37 D(1,3,6,7)      =     44.809241    -0.000928     0.321316    45.130557
	   38 D(1,3,6,8)      =    -76.454640    -0.000918     0.567101   -75.887539
	   39 D(1,3,9,2)      =    -36.383937     0.000306    -0.347098   -36.731035
	   40 D(1,9,3,4)      =     55.911471     0.000188     0.075328    55.986799
	   41 D(1,9,3,6)      =    -71.618442    -0.000145     1.047669   -70.570773
	   42 D(2,1,3,4)      =      1.742164    -0.000687     1.243961     2.986125
	   43 D(2,1,3,6)      =   -109.484340    -0.000522     2.119215  -107.365125
	   44 D(2,1,3,9)      =    120.092991    -0.001234     1.081049   121.174039
	   45 D(2,1,9,3)      =   -103.870344    -0.000092     0.596717  -103.273627
	   46 D(2,9,1,3)      =    103.870344     0.000092    -0.596717   103.273627
	   47 D(2,9,1,10)     =   -143.175324    -0.000006    -1.322328  -144.497652
	   48 D(2,9,3,4)      =     19.527534     0.000494    -0.271770    19.255764
	   49 D(2,9,3,6)      =   -108.002379     0.000160     0.700571  -107.301808
	   50 D(3,1,2,9)      =   -108.900586     0.001009    -1.925539  -110.826126
	   51 D(3,9,1,10)     =    112.954332    -0.000098    -0.725611   112.228721
	   52 D(4,3,1,9)      =   -118.350827     0.000548     0.162912  -118.187914
	   53 D(4,3,1,10)     =    127.571218    -0.000038    -5.817041   121.754176
	   54 D(4,3,6,5)      =     84.685945     0.000140     0.418254    85.104199
	   55 D(4,3,6,7)      =    -35.461465     0.000132     0.220051   -35.241414
	   56 D(4,3,6,8)      =   -156.725346     0.000142     0.465836  -156.259510
	   57 D(5,6,3,9)      =   -158.319457     0.000794    -0.493946  -158.813403
	   58 D(6,3,1,9)      =    130.422669     0.000712     1.038167   131.460836
	   59 D(6,3,1,10)     =     16.344714     0.000127    -4.941787    11.402926
	   60 D(7,6,3,9)      =     81.533133     0.000786    -0.692149    80.840984
	   61 D(8,6,3,9)      =    -39.730748     0.000796    -0.446365   -40.177113
	   62 D(9,2,1,10)     =    137.717497     0.000182     5.688600   143.406097
	   63 D(9,3,1,10)     =   -114.077955    -0.000585    -5.979954  -120.057909
	 ---------------------------------------------------------------------------
	Successfully symmetrized geometry.

  ==> Convergence Check <==

  Measures of convergence in internal coordinates in au.
  Criteria marked as inactive (o), active & met (*), and active & unmet ( ).
  --------------------------------------------------------------------------------------------- ~
   Step     Total Energy     Delta E     MAX Force     RMS Force      MAX Disp      RMS Disp    ~
  --------------------------------------------------------------------------------------------- ~
    Convergence Criteria    1.00e-06 *    3.00e-04 *             o    1.20e-03 *             o  ~
  --------------------------------------------------------------------------------------------- ~
      1   -2803.42622613   -2.80e+03      4.88e-01      8.33e-02 o    1.82e-01      4.76e-02 o  ~
  ---------------------------------------------------------------------------------------------

	Writing optimization data to binary file.
	Structure for next step:
	Cartesian Geometry (in Angstrom)
	    C     0.0283771283  -0.3176795048  -0.4907424254
	    O    -0.9776159696  -0.2661548156  -1.3373672292
	    O     0.3840894465   1.2715062159  -0.6716001136
	    H    -0.5590426737   1.0013862074  -1.2944791230
	    H     1.5135133852   2.6746587670  -1.6529296715
	    C     1.5622452232   1.6152359900  -1.4060982199
	    H     1.6262396525   1.0219886943  -2.3220569455
	    H     2.4289540260   1.4296652442  -0.7716346786
	   BR    -0.2442549050  -0.5093506624   0.8524979449
	    H     0.9678003917  -0.8165376651  -0.8418525847
			--------------------------
			 OPTKING Finished Execution 
			--------------------------

    Structure for next step:
    Molecular point group: c1
    Full point group: C1

    Geometry (in Angstrom), charge = 0, multiplicity = 1:

    C            0.054514755539    -0.294862354530    -0.529653925013
    O           -0.951478342361    -0.243337665302    -1.376278728901
    O            0.410227073687     1.294323366184    -0.710511613275
    H           -0.532905046540     1.024203357684    -1.333390622652
    H            1.539651012424     2.697475917353    -1.691841171192
    C            1.588382850362     1.638053140334    -1.445009719548
    H            1.652377279748     1.044805844606    -2.360968445159
    H            2.455091653240     1.452482394471    -0.810546178260
    BR          -0.218117277762    -0.486533512109     0.813586445242
    H            0.993938018904    -0.793720514796    -0.880764084347

gradient() will perform analytic gradient computation.

*** tstart() called on localhost.localdomain
*** at Thu Jan 17 13:12:10 2019

   => Loading Basis Set <=

    Name: ANONYMOUS50098001
    Role: ORBITAL
    Keyword: BASIS
    atoms 1, 6         entry C          line   119 file /root/psi4conda/share/psi4/basis/6-311ppgss.gbs 
    atoms 2-3          entry O          line   161 file /root/psi4conda/share/psi4/basis/6-311ppgss.gbs 
    atoms 4-5, 7-8, 10 entry H          line    42 file /root/psi4conda/share/psi4/basis/6-311ppgss.gbs 
    atoms 9            entry BR         line  1545 file /root/psi4conda/share/psi4/basis/def2-tzvpp.gbs 


         ---------------------------------------------------------
                                   SCF
            by Justin Turney, Rob Parrish, Andy Simmonett
                             and Daniel Smith
                              RKS Reference
                       16 Threads,    500 MiB Core
         ---------------------------------------------------------

  ==> Geometry <==

    Molecular point group: c1
    Full point group: C1

    Geometry (in Angstrom), charge = 0, multiplicity = 1:

       Center              X                  Y                   Z               Mass       
    ------------   -----------------  -----------------  -----------------  -----------------
         C            0.054514755539    -0.294862354530    -0.529653925013    12.000000000000
         O           -0.951478342361    -0.243337665302    -1.376278728901    15.994914619560
         O            0.410227073687     1.294323366184    -0.710511613275    15.994914619560
         H           -0.532905046540     1.024203357684    -1.333390622652     1.007825032070
         H            1.539651012424     2.697475917353    -1.691841171192     1.007825032070
         C            1.588382850362     1.638053140334    -1.445009719548    12.000000000000
         H            1.652377279748     1.044805844606    -2.360968445159     1.007825032070
         H            2.455091653240     1.452482394471    -0.810546178260     1.007825032070
         BR          -0.218117277762    -0.486533512109     0.813586445242    78.918337087000
         H            0.993938018904    -0.793720514796    -0.880764084347     1.007825032070

  Running in c1 symmetry.

  Rotational constants: A =      0.24299  B =      0.07409  C =      0.06109 [cm^-1]
  Rotational constants: A =   7284.66336  B =   2221.17174  C =   1831.46092 [MHz]
  Nuclear repulsion =  391.369927999921231

  Charge       = 0
  Multiplicity = 1
  Electrons    = 68
  Nalpha       = 34
  Nbeta        = 34

  ==> Algorithm <==

  SCF Algorithm Type is DF.
  DIIS enabled.
  MOM disabled.
  Fractional occupation disabled.
  Guess Type is READ.
  Energy threshold   = 1.00e-08
  Density threshold  = 1.00e-08
  Integral threshold = 0.00e+00

  ==> Primary Basis <==

  Basis Set: ANONYMOUS50098001
    Blend: 6-311PPGSS + DEF2-TZVPP
    Number of shells: 81
    Number of basis function: 171
    Number of Cartesian functions: 182
    Spherical Harmonics?: true
    Max angular momentum: 3

  ==> DFT Potential <==

   => Composite Functional: M06-2X <= 

    Hybrid M06-2X Meta-GGA XC Functional

    Y. Zhao and D. G. Truhlar,  Theor. Chem. Acc., 120, 215, 2008


    Deriv               =              1
    GGA                 =           TRUE
    Meta                =           TRUE

    Exchange Hybrid     =           TRUE
    MP2 Hybrid          =          FALSE

   => Exchange Functionals <=

    1.0000   XC_HYB_MGGA_X_M06_2X

   => Exact (HF) Exchange <=

    0.5400               HF 

   => Correlation Functionals <=

    1.0000   XC_MGGA_C_M06_2X

   => Molecular Quadrature <=

    Radial Scheme       =       TREUTLER
    Pruning Scheme      =           FLAT
    Nuclear Scheme      =       TREUTLER

    BS radius alpha     =              1
    Pruning alpha       =              1
    Radial Points       =             75
    Spherical Points    =            302
    Total Points        =         226304
    Total Blocks        =           1760
    Max Points          =            256
    Max Functions       =            165

   => Loading Basis Set <=

    Name: (ANONYMOUS50098001 AUX)
    Role: JKFIT
    Keyword: DF_BASIS_SCF
    atoms 1, 6         entry C          line   162 file /root/psi4conda/share/psi4/basis/aug-cc-pvtz-jkfit.gbs 
    atoms 2-3          entry O          line   286 file /root/psi4conda/share/psi4/basis/aug-cc-pvtz-jkfit.gbs 
    atoms 4-5, 7-8, 10 entry H          line    70 file /root/psi4conda/share/psi4/basis/aug-cc-pvtz-jkfit.gbs 
    atoms 9            entry BR         line  3129 file /root/psi4conda/share/psi4/basis/def2-tzvpp-jkfit.gbs 

  Reading orbitals from file 180, no projection.

  ==> Pre-Iterations <==

   -------------------------------------------------------
    Irrep   Nso     Nmo     Nalpha   Nbeta   Ndocc  Nsocc
   -------------------------------------------------------
     A        171     171       0       0       0       0
   -------------------------------------------------------
    Total     171     171      34      34      34       0
   -------------------------------------------------------

  ==> Integral Setup <==

  DFHelper Memory: AOs need 0.255 [GiB]; user supplied 0.366 [GiB]. Using in-core AOs.

  ==> MemDFJK: Density-Fitted J/K Matrices <==

    J tasked:                   Yes
    K tasked:                   Yes
    wK tasked:                   No
    OpenMP threads:              16
    Memory (MB):                375
    Algorithm:                 Core
    Schwarz Cutoff:           1E-12
    Mask sparsity (%):       2.6401
    Fitting Condition:        1E-12

   => Auxiliary Basis Set <=

  Basis Set: (ANONYMOUS50098001 AUX)
    Blend: AUG-CC-PVTZ-JKFIT + DEF2-TZVPP-JKFIT
    Number of shells: 250
    Number of basis function: 912
    Number of Cartesian functions: 1170
    Spherical Harmonics?: true
    Max angular momentum: 5

  Minimum eigenvalue in the overlap matrix is 5.0470295858E-04.
  Using Symmetric Orthogonalization.

  SCF Guess: Orbitals guess was supplied from a previous computation.

  ==> Iterations <==

                           Total Energy        Delta E     RMS |[F,P]|

   @DF-RKS iter   0: -2803.48840648778514   -2.80349e+03   8.22243e-03 
   @DF-RKS iter   1: -2803.49599508823076   -7.58860e-03   1.04248e-03 
   @DF-RKS iter   2: -2803.49639295310726   -3.97865e-04   8.89274e-04 DIIS
   @DF-RKS iter   3: -2803.49696427823255   -5.71325e-04   1.61439e-04 DIIS
   @DF-RKS iter   4: -2803.49698786345016   -2.35852e-05   6.86002e-05 DIIS
   @DF-RKS iter   5: -2803.49699207823369   -4.21478e-06   1.93684e-05 DIIS
   @DF-RKS iter   6: -2803.49699250514277   -4.26909e-07   1.22894e-05 DIIS
   @DF-RKS iter   7: -2803.49699265228855   -1.47146e-07   1.70812e-06 DIIS
   @DF-RKS iter   8: -2803.49699265667005   -4.38149e-09   1.04528e-06 DIIS
   @DF-RKS iter   9: -2803.49699265820072   -1.53068e-09   2.16142e-07 DIIS
   @DF-RKS iter  10: -2803.49699265830259   -1.01863e-10   6.02262e-08 DIIS
   @DF-RKS iter  11: -2803.49699265830895   -6.36646e-12   1.95356e-08 DIIS
   @DF-RKS iter  12: -2803.49699265831214   -3.18323e-12   6.11671e-09 DIIS

  ==> Post-Iterations <==

    Orbital Energies [Eh]
    ---------------------

    Doubly Occupied:                                                      

       1A   -485.385584     2A    -63.380197     3A    -57.196337  
       4A    -57.195638     5A    -57.195143     6A    -19.674396  
       7A    -19.574595     8A    -10.674950     9A    -10.609923  
      10A     -9.057026    11A     -6.883264    12A     -6.872609  
      13A     -6.870735    14A     -2.919869    15A     -2.912467  
      16A     -2.910845    17A     -2.903027    18A     -2.902986  
      19A     -1.242457    20A     -1.127522    21A     -1.029857  
      22A     -0.818892    23A     -0.700930    24A     -0.642526  
      25A     -0.601060    26A     -0.583331    27A     -0.543048  
      28A     -0.517229    29A     -0.477437    30A     -0.457997  
      31A     -0.372486    32A     -0.348835    33A     -0.340063  
      34A     -0.324593  

    Virtual:                                                              

      35A     -0.007471    36A      0.012765    37A      0.024762  
      38A      0.028667    39A      0.043717    40A      0.051643  
      41A      0.067883    42A      0.074703    43A      0.086104  
      44A      0.095953    45A      0.111777    46A      0.121722  
      47A      0.129577    48A      0.137435    49A      0.157408  
      50A      0.177897    51A      0.195909    52A      0.199668  
      53A      0.208009    54A      0.221651    55A      0.234336  
      56A      0.243401    57A      0.254227    58A      0.281226  
      59A      0.283703    60A      0.301170    61A      0.315808  
      62A      0.324483    63A      0.363564    64A      0.367416  
      65A      0.379389    66A      0.401862    67A      0.408637  
      68A      0.433016    69A      0.462323    70A      0.479365  
      71A      0.485657    72A      0.509620    73A      0.530530  
      74A      0.542050    75A      0.558327    76A      0.604884  
      77A      0.651215    78A      0.668701    79A      0.672207  
      80A      0.698691    81A      0.710292    82A      0.785354  
      83A      0.832171    84A      0.907185    85A      0.981218  
      86A      1.007834    87A      1.054291    88A      1.056220  
      89A      1.103840    90A      1.159918    91A      1.173797  
      92A      1.206925    93A      1.219993    94A      1.259743  
      95A      1.314559    96A      1.346252    97A      1.363457  
      98A      1.369749    99A      1.401879   100A      1.437390  
     101A      1.457451   102A      1.478427   103A      1.495717  
     104A      1.522809   105A      1.540427   106A      1.554969  
     107A      1.582773   108A      1.601432   109A      1.617339  
     110A      1.652006   111A      1.669170   112A      1.675329  
     113A      1.716890   114A      1.727299   115A      1.759751  
     116A      1.770539   117A      1.792903   118A      1.840441  
     119A      1.891841   120A      1.927435   121A      1.993739  
     122A      2.036163   123A      2.046378   124A      2.151014  
     125A      2.163193   126A      2.199542   127A      2.287693  
     128A      2.342515   129A      2.425420   130A      2.452976  
     131A      2.520022   132A      2.542525   133A      2.575650  
     134A      2.611216   135A      2.632779   136A      2.662190  
     137A      2.742646   138A      2.770194   139A      2.870292  
     140A      2.932785   141A      2.958581   142A      3.014439  
     143A      3.138844   144A      3.177642   145A      3.214685  
     146A      3.319395   147A      3.537250   148A      3.588401  
     149A      3.731454   150A      3.786549   151A      3.832096  
     152A      3.892933   153A      3.950938   154A      4.059901  
     155A      4.073860   156A      4.085958   157A      4.157606  
     158A      4.277181   159A      4.320960   160A      4.402060  
     161A      5.238008   162A      5.268398   163A      5.321066  
     164A      5.336120   165A      5.665644   166A      5.839539  
     167A      8.067829   168A     23.970353   169A     24.431896  
     170A     49.997534   171A     50.141746  

    Final Occupation by Irrep:
              A 
    DOCC [    34 ]

  Energy converged.

  @DF-RKS Final Energy: -2803.49699265831214

   => Energetics <=

    Nuclear Repulsion Energy =            391.3699279999212308
    One-Electron Energy =               -4673.5389520931403240
    Two-Electron Energy =                1536.2017599243520181
    DFT Exchange-Correlation Energy =     -57.5297284894448495
    Empirical Dispersion Energy =           0.0000000000000000
    VV10 Nonlocal Energy =                  0.0000000000000000
    Total Energy =                      -2803.4969926583125925



Properties will be evaluated at   0.000000,   0.000000,   0.000000 [a0]

Properties computed using the SCF density matrix

  Nuclear Dipole Moment: [e a0]
     X:     7.5616      Y:     9.1909      Z:   -13.5008

  Electronic Dipole Moment: [e a0]
     X:    -6.2173      Y:    -8.6583      Z:    13.6804

  Dipole Moment: [e a0]
     X:     1.3443      Y:     0.5325      Z:     0.1797     Total:     1.4570

  Dipole Moment: [D]
     X:     3.4168      Y:     1.3536      Z:     0.4566     Total:     3.7034


*** tstop() called on localhost.localdomain at Thu Jan 17 13:12:20 2019
Module time:
	user time   =     143.65 seconds =       2.39 minutes
	system time =       2.41 seconds =       0.04 minutes
	total time  =         10 seconds =       0.17 minutes
Total time:
	user time   =     374.53 seconds =       6.24 minutes
	system time =       8.08 seconds =       0.13 minutes
	total time  =         28 seconds =       0.47 minutes

*** tstart() called on localhost.localdomain
*** at Thu Jan 17 13:12:20 2019


         ------------------------------------------------------------
                                   SCF GRAD                          
                          Rob Parrish, Justin Turney,                
                       Andy Simmonett, and Alex Sokolov              
         ------------------------------------------------------------

  ==> Geometry <==

    Molecular point group: c1
    Full point group: C1

    Geometry (in Angstrom), charge = 0, multiplicity = 1:

       Center              X                  Y                   Z               Mass       
    ------------   -----------------  -----------------  -----------------  -----------------
         C            0.054514755539    -0.294862354530    -0.529653925013    12.000000000000
         O           -0.951478342361    -0.243337665302    -1.376278728901    15.994914619560
         O            0.410227073687     1.294323366184    -0.710511613275    15.994914619560
         H           -0.532905046540     1.024203357684    -1.333390622652     1.007825032070
         H            1.539651012424     2.697475917353    -1.691841171192     1.007825032070
         C            1.588382850362     1.638053140334    -1.445009719548    12.000000000000
         H            1.652377279748     1.044805844606    -2.360968445159     1.007825032070
         H            2.455091653240     1.452482394471    -0.810546178260     1.007825032070
         BR          -0.218117277762    -0.486533512109     0.813586445242    78.918337087000
         H            0.993938018904    -0.793720514796    -0.880764084347     1.007825032070

  Nuclear repulsion =  391.369927999921231

  ==> Basis Set <==

  Basis Set: ANONYMOUS50098001
    Blend: 6-311PPGSS + DEF2-TZVPP
    Number of shells: 81
    Number of basis function: 171
    Number of Cartesian functions: 182
    Spherical Harmonics?: true
    Max angular momentum: 3

  ==> DFJKGrad: Density-Fitted SCF Gradients <==

    Gradient:                    1
    J tasked:                  Yes
    K tasked:                  Yes
    wK tasked:                  No
    OpenMP threads:             16
    Integrals threads:          16
    Memory (MB):               375
    Schwarz Cutoff:          0E+00
    Fitting Condition:       1E-12

   => Auxiliary Basis Set <=

  Basis Set: (ANONYMOUS50098001 AUX)
    Blend: AUG-CC-PVTZ-JKFIT + DEF2-TZVPP-JKFIT
    Number of shells: 250
    Number of basis function: 912
    Number of Cartesian functions: 1170
    Spherical Harmonics?: true
    Max angular momentum: 5

  ==> DFT Potential <==

   => Composite Functional: M06-2X <= 

    Hybrid M06-2X Meta-GGA XC Functional

    Y. Zhao and D. G. Truhlar,  Theor. Chem. Acc., 120, 215, 2008


    Deriv               =              1
    GGA                 =           TRUE
    Meta                =           TRUE

    Exchange Hybrid     =           TRUE
    MP2 Hybrid          =          FALSE

   => Exchange Functionals <=

    1.0000   XC_HYB_MGGA_X_M06_2X

   => Exact (HF) Exchange <=

    0.5400               HF 

   => Correlation Functionals <=

    1.0000   XC_MGGA_C_M06_2X

   => Molecular Quadrature <=

    Radial Scheme       =       TREUTLER
    Pruning Scheme      =           FLAT
    Nuclear Scheme      =       TREUTLER

    BS radius alpha     =              1
    Pruning alpha       =              1
    Radial Points       =             75
    Spherical Points    =            302
    Total Points        =         226304
    Total Blocks        =           1760
    Max Points          =            256
    Max Functions       =            165


  -Total Gradient:
     Atom            X                  Y                   Z
    ------   -----------------  -----------------  -----------------
       1       -0.156848995499    -0.070054874472     0.674945764781
       2        0.013675270013    -0.013556160879     0.036523886466
       3       -0.013910181502    -0.036919259432     0.024152928051
       4       -0.000793891245     0.007796235902     0.003269747849
       5       -0.000259495651    -0.000126880839    -0.000039384925
       6        0.004407476616     0.000061670039    -0.001022419731
       7       -0.000178828255     0.000148508509     0.000214681397
       8       -0.000544277004     0.000079975497     0.000212256860
       9        0.150759001583     0.122650000681    -0.754431197203
      10        0.004509314998    -0.010318020606     0.014573762218


*** tstop() called on localhost.localdomain at Thu Jan 17 13:12:25 2019
Module time:
	user time   =      56.33 seconds =       0.94 minutes
	system time =       2.56 seconds =       0.04 minutes
	total time  =          5 seconds =       0.08 minutes
Total time:
	user time   =     430.88 seconds =       7.18 minutes
	system time =      10.64 seconds =       0.18 minutes
	total time  =         33 seconds =       0.55 minutes

			-----------------------------------------
			 OPTKING 2.0: for geometry optimizations 
			  - R.A. King,  Bethel University        
			-----------------------------------------

	Previous internal coordinate definitions found.
	---Fragment 1 Geometry and Gradient---
	 C           0.1030179582       -0.5572090970       -1.0009008635
	 O          -1.7980334884       -0.4598415452       -2.6007898801
	 O           0.7752168216        2.4459166895       -1.3426723633
	 H          -1.0070445928        1.9354638504       -2.5197431050
	 H           2.9095187537        5.0974907339       -3.1971164739
	 C           3.0016085814        3.0954718263       -2.7306726293
	 H           3.1225405269        1.9743969083       -4.4615837697
	 H           4.6394508558        2.7447939384       -1.5317102950
	 BR         -0.4121819198       -0.9194150924        1.5374555669
	 H           1.8782706488       -1.4999143990       -1.6644029071
	            -0.1568489955       -0.0700548745        0.6749457648
	             0.0136752700       -0.0135561609        0.0365238865
	            -0.0139101815       -0.0369192594        0.0241529281
	            -0.0007938912        0.0077962359        0.0032697478
	            -0.0002594957       -0.0001268808       -0.0000393849
	             0.0044074766        0.0000616700       -0.0010224197
	            -0.0001788283        0.0001485085        0.0002146814
	            -0.0005442770        0.0000799755        0.0002122569
	             0.1507590016        0.1226500007       -0.7544311972
	             0.0045093150       -0.0103180206        0.0145737622

	---Fragment 1 Intrafragment Coordinates---
	 - Coordinate -           - BOHR/RAD -       - ANG/DEG -
	 H(2,4)           =         2.523830	       1.335554
	 R(1,2)           =         2.486588	       1.315846
	 R(1,3)           =         3.096356	       1.638521
	 R(1,9)           =         2.615316	       1.383966
	 R(1,10)          =         2.116707	       1.120113
	 R(2,9)           =         4.388265	       2.322170
	 R(3,4)           =         2.196022	       1.162085
	 R(3,6)           =         2.702829	       1.430276
	 R(3,9)           =         4.585903	       2.426756
	 R(5,6)           =         2.057700	       1.088888
	 R(6,7)           =         2.065790	       1.093169
	 R(6,8)           =         2.059858	       1.090030
	 B(1,2,9)         =         0.550443	      31.538066
	 B(1,3,4)         =         1.221249	      69.972418
	 B(1,3,6)         =         2.058498	     117.943266
	 B(1,3,9)         =         0.578508	      33.146045
	 B(1,9,2)         =         0.520506	      29.822806
	 B(1,9,3)         =         0.704095	      40.341686
	 B(2,1,3)         =         1.627803	      93.266269
	 B(2,1,9)         =         2.070643	     118.639128
	 B(2,1,10)        =         2.045361	     117.190525
	 B(2,9,3)         =         0.943027	      54.031485
	 B(3,1,9)         =         1.858990	     106.512269
	 B(3,1,10)        =         1.787777	     102.432055
	 B(3,6,5)         =         1.889531	     108.262172
	 B(3,6,7)         =         1.926328	     110.370475
	 B(3,6,8)         =         1.891402	     108.369371
	 B(4,3,6)         =         2.036589	     116.687941
	 B(4,3,9)         =         1.526696	      87.473211
	 B(5,6,7)         =         1.918442	     109.918633
	 B(5,6,8)         =         1.910454	     109.460963
	 B(6,3,9)         =         2.363371	     135.411189
	 B(7,6,8)         =         1.927054	     110.412047
	 B(9,1,10)        =         1.990808	     114.064872
	 D(1,2,9,3)       =         0.892232	      51.121115
	 D(1,3,6,5)       =         2.888104	     165.476170
	 D(1,3,6,7)       =         0.787677	      45.130557
	 D(1,3,6,8)       =        -1.324487	     -75.887539
	 D(1,3,9,2)       =        -0.641077	     -36.731035
	 D(1,9,3,4)       =         0.977154	      55.986799
	 D(1,9,3,6)       =        -1.231692	     -70.570773
	 D(2,1,3,4)       =         0.052118	       2.986125
	 D(2,1,3,6)       =        -1.873875	    -107.365125
	 D(2,1,3,9)       =         2.114886	     121.174039
	 D(2,1,9,3)       =        -1.802465	    -103.273627
	 D(2,9,1,3)       =         1.802465	     103.273627
	 D(2,9,1,10)      =        -2.521960	    -144.497652
	 D(2,9,3,4)       =         0.336076	      19.255764
	 D(2,9,3,6)       =        -1.872770	    -107.301808
	 D(3,1,2,9)       =        -1.934281	    -110.826126
	 D(3,9,1,10)      =         1.958761	     112.228721
	 D(4,3,1,9)       =        -2.062768	    -118.187914
	 D(4,3,1,10)      =         2.125011	     121.754176
	 D(4,3,6,5)       =         1.485348	      85.104199
	 D(4,3,6,7)       =        -0.615079	     -35.241414
	 D(4,3,6,8)       =        -2.727243	    -156.259510
	 D(5,6,3,9)       =        -2.771817	    -158.813403
	 D(6,3,1,9)       =         2.294424	     131.460836
	 D(6,3,1,10)      =         0.199019	      11.402926
	 D(7,6,3,9)       =         1.410941	      80.840984
	 D(8,6,3,9)       =        -0.701223	     -40.177113
	 D(9,2,1,10)      =         2.502909	     143.406097
	 D(9,3,1,10)      =        -2.095406	    -120.057909

	Current energy   :     -2803.4969926583

	Energy change for the previous step:
		Projected    :        -0.0399963574
		Actual       :        -0.0707665281

	Performing Bofill update.
	Previous computed or guess Hessian on step 1.
	Steps to be used in Hessian update: 1
	Taking PRFO optimization step.
	Maximizing along 1 lowest eigenvalue of Hessian.

 RFO min eigenvalues
 -0.115711 -0.000000 -0.000000 -0.000000 -0.000000 -0.000000 -0.000000 -0.000000
 -0.000000 -0.000000 -0.000000 -0.000000 -0.000000 -0.000000 -0.000000 -0.000000
 -0.000000 -0.000000 -0.000000 -0.000000 -0.000000 -0.000000 -0.000000  0.000000
  0.000000  0.000000  0.000000  0.000000  0.000000  0.000000  0.000000  0.000000
  0.000000  0.000000  0.000000  0.000000  0.000000  0.000000  0.000000  0.000958
  0.008227  0.024114  0.055714  0.056687  0.058842  0.078173  0.079980  0.112858
  0.122441  0.147015  0.159612  0.159990  0.159993  0.168086  0.214071  0.275775
  0.344013  0.345150  0.349411  0.350666  0.409691  0.471289  7.734960

 RFO max eigenvalues
 -0.000000  0.000000
	Change in coordinate exceeds step limit of    0.50000.
	Scaling displacements by    0.88760
	|RFO target step|  :        0.5000000000
	RFO gradient       :       -0.2054101150
	RFO hessian        :        0.2489406565
	Projected Delta(E) :       -0.0572699803

	Back-transformation to cartesian coordinates...
	Could not converge backtransformation.
	Using first guess instead.

	--- Internal Coordinate Step in ANG or DEG, aJ/ANG or AJ/DEG ---
	 ---------------------------------------------------------------------------
	   Coordinate                Previous        Force       Change         New 
	   ----------                --------       ------       ------       ------
	    1 H(2,4)          =      1.335554    -0.024433    -0.029273     1.306280
	    2 R(1,2)          =      1.315846    -0.879018     0.031795     1.347641
	    3 R(1,3)          =      1.638521    -0.545653     0.051132     1.689653
	    4 R(1,9)          =      1.383966     3.439440     0.059177     1.443142
	    5 R(1,10)         =      1.120113    -0.029389     0.008354     1.128467
	    6 R(2,9)          =      2.322170     1.590148     0.096890     2.419059
	    7 R(3,4)          =      1.162085     0.011926     0.004963     1.167048
	    8 R(3,6)          =      1.430276    -0.023401    -0.006225     1.424050
	    9 R(3,9)          =      2.426756     1.382062     0.139772     2.566528
	   10 R(5,6)          =      1.088888     0.001413     0.000818     1.089706
	   11 R(6,7)          =      1.093169     0.002572     0.000912     1.094081
	   12 R(6,8)          =      1.090030     0.002455     0.001069     1.091098
	   13 B(1,2,9)        =     31.538066     0.006935    -0.479316    31.058750
	   14 B(1,3,4)        =     69.972418    -0.001603    -0.920337    69.052081
	   15 B(1,3,6)        =    117.943266    -0.004140     1.188288   119.131554
	   16 B(1,3,9)        =     33.146045     0.006941    -1.197704    31.948341
	   17 B(1,9,2)        =     29.822806    -0.002357    -1.021379    28.801427
	   18 B(1,9,3)        =     40.341686    -0.002671    -2.058981    38.282704
	   19 B(2,1,3)        =     93.266269     0.004101    -2.998866    90.267404
	   20 B(2,1,9)        =    118.639128    -0.004577     1.500695   120.139822
	   21 B(2,1,10)       =    117.190525     0.001261    -6.595042   110.595482
	   22 B(2,9,3)        =     54.031485    -0.003496    -2.630175    51.401310
	   23 B(3,1,9)        =    106.512269    -0.004269     3.256685   109.768954
	   24 B(3,1,10)       =    102.432055     0.000654    -5.683349    96.748706
	   25 B(3,6,5)        =    108.262172     0.000005     0.196523   108.458695
	   26 B(3,6,7)        =    110.370475     0.000016     0.058705   110.429180
	   27 B(3,6,8)        =    108.369371     0.000062     0.306523   108.675894
	   28 B(4,3,6)        =    116.687941    -0.000639    -1.207690   115.480251
	   29 B(4,3,9)        =     87.473211     0.001634    -1.104863    86.368348
	   30 B(5,6,7)        =    109.918633    -0.000014    -0.098001   109.820632
	   31 B(5,6,8)        =    109.460963    -0.000030    -0.212493   109.248471
	   32 B(6,3,9)        =    135.411189     0.000233     1.156378   136.567567
	   33 B(7,6,8)        =    110.412047    -0.000038    -0.241857   110.170191
	   34 B(9,1,10)       =    114.064872     0.002940     7.324334   121.389206
	   35 D(1,2,9,3)      =     51.121115    -0.000195    -0.380505    50.740610
	   36 D(1,3,6,5)      =    165.476170    -0.000777     0.165623   165.641793
	   37 D(1,3,6,7)      =     45.130557    -0.000776     0.127414    45.257972
	   38 D(1,3,6,8)      =    -75.887539    -0.000777     0.194462   -75.693078
	   39 D(1,3,9,2)      =    -36.731035     0.000282    -0.290240   -37.021275
	   40 D(1,9,3,4)      =     55.986799     0.000116    -1.102241    54.884558
	   41 D(1,9,3,6)      =    -70.570773    -0.000149     1.401963   -69.168810
	   42 D(2,1,3,4)      =      2.986125    -0.000580     0.315920     3.302045
	   43 D(2,1,3,6)      =   -107.365125    -0.000436     2.366587  -104.998538
	   44 D(2,1,3,9)      =    121.174039    -0.001008     1.186204   122.360243
	   45 D(2,1,9,3)      =   -103.273627    -0.000074     0.892633  -102.380993
	   46 D(2,9,1,3)      =    103.273627     0.000074    -0.892633   102.380993
	   47 D(2,9,1,10)     =   -144.497652     0.000002    -1.678366  -146.176018
	   48 D(2,9,3,4)      =     19.255764     0.000399    -1.392481    17.863283
	   49 D(2,9,3,6)      =   -107.301808     0.000133     1.111724  -106.190084
	   50 D(3,1,2,9)      =   -110.826126     0.000859    -2.366172  -113.192298
	   51 D(3,9,1,10)     =    112.228721    -0.000071    -0.785732   111.442989
	   52 D(4,3,1,9)      =   -118.187914     0.000427    -0.870284  -119.058198
	   53 D(4,3,1,10)     =    121.754176     0.000015    -7.672271   114.081905
	   54 D(4,3,6,5)      =     85.104199     0.000132     1.362211    86.466410
	   55 D(4,3,6,7)      =    -35.241414     0.000133     1.324002   -33.917412
	   56 D(4,3,6,8)      =   -156.259510     0.000132     1.391049  -154.868461
	   57 D(5,6,3,9)      =   -158.813403     0.000651    -1.060200  -159.873604
	   58 D(6,3,1,9)      =    131.460836     0.000572     1.180383   132.641218
	   59 D(6,3,1,10)     =     11.402926     0.000159    -5.621604     5.781322
	   60 D(7,6,3,9)      =     80.840984     0.000652    -1.098409    79.742575
	   61 D(8,6,3,9)      =    -40.177113     0.000652    -1.031362   -41.208475
	   62 D(9,2,1,10)     =    143.406097     0.000111     6.088374   149.494471
	   63 D(9,3,1,10)     =   -120.057909    -0.000413    -6.801987  -126.859896
	 ---------------------------------------------------------------------------
	Successfully symmetrized geometry.

  ==> Convergence Check <==

  Measures of convergence in internal coordinates in au.
  Criteria marked as inactive (o), active & met (*), and active & unmet ( ).
  ---------------------------------------------------------------------------------------------
   Step     Total Energy     Delta E     MAX Force     RMS Force      MAX Disp      RMS Disp   
  ---------------------------------------------------------------------------------------------
    Convergence Criteria    1.00e-06 *    3.00e-04 *             o    1.20e-03 *             o
  ---------------------------------------------------------------------------------------------
      2   -2803.49699266   -7.08e-02      4.17e-01      7.05e-02 o    2.64e-01      6.28e-02 o  ~
  ---------------------------------------------------------------------------------------------

	Writing optimization data to binary file.
	Structure for next step:
	Cartesian Geometry (in Angstrom)
	    C     0.0431001802  -0.3207058575  -0.4791483025
	    O    -0.9407100461  -0.2265729141  -1.3953321788
	    O     0.4263104032   1.3084087380  -0.7116624147
	    H    -0.5020652246   1.0030038438  -1.3495086343
	    H     1.5418741287   2.7030837629  -1.7158730489
	    C     1.5942563797   1.6469166947  -1.4527658386
	    H     1.6589088282   1.0409998138  -2.3614449550
	    H     2.4690831257   1.4759381614  -0.8235280724
	   BR    -0.2786467353  -0.5532470823   0.9083180973
	    H     0.9795709375  -0.7449351869  -0.9444326952
			--------------------------
			 OPTKING Finished Execution 
			--------------------------

    Structure for next step:
    Molecular point group: c1
    Full point group: C1

    Geometry (in Angstrom), charge = 0, multiplicity = 1:

    C            0.074357387198    -0.285535606087    -0.533080740477
    O           -0.909452839107    -0.191402662664    -1.449264616739
    O            0.457567610185     1.343578989438    -0.765594852647
    H           -0.470808017635     1.038174095232    -1.403441072313
    H            1.573131335660     2.738254014292    -1.769805486884
    C            1.625513586729     1.682086946100    -1.506698276605
    H            1.690166035156     1.076170065201    -2.415377393037
    H            2.500340332695     1.511108412785    -0.877460510416
    BR          -0.247389528320    -0.518076830930     0.854385659332
    H            1.010828144486    -0.709764935526    -0.998365133206

gradient() will perform analytic gradient computation.

*** tstart() called on localhost.localdomain
*** at Thu Jan 17 13:12:25 2019

   => Loading Basis Set <=

    Name: ANONYMOUS50098001
    Role: ORBITAL
    Keyword: BASIS
    atoms 1, 6         entry C          line   119 file /root/psi4conda/share/psi4/basis/6-311ppgss.gbs 
    atoms 2-3          entry O          line   161 file /root/psi4conda/share/psi4/basis/6-311ppgss.gbs 
    atoms 4-5, 7-8, 10 entry H          line    42 file /root/psi4conda/share/psi4/basis/6-311ppgss.gbs 
    atoms 9            entry BR         line  1545 file /root/psi4conda/share/psi4/basis/def2-tzvpp.gbs 


         ---------------------------------------------------------
                                   SCF
            by Justin Turney, Rob Parrish, Andy Simmonett
                             and Daniel Smith
                              RKS Reference
                       16 Threads,    500 MiB Core
         ---------------------------------------------------------

  ==> Geometry <==

    Molecular point group: c1
    Full point group: C1

    Geometry (in Angstrom), charge = 0, multiplicity = 1:

       Center              X                  Y                   Z               Mass       
    ------------   -----------------  -----------------  -----------------  -----------------
         C            0.074357387198    -0.285535606087    -0.533080740477    12.000000000000
         O           -0.909452839107    -0.191402662664    -1.449264616739    15.994914619560
         O            0.457567610185     1.343578989438    -0.765594852647    15.994914619560
         H           -0.470808017635     1.038174095232    -1.403441072313     1.007825032070
         H            1.573131335660     2.738254014292    -1.769805486884     1.007825032070
         C            1.625513586729     1.682086946100    -1.506698276605    12.000000000000
         H            1.690166035156     1.076170065201    -2.415377393037     1.007825032070
         H            2.500340332695     1.511108412785    -0.877460510416     1.007825032070
         BR          -0.247389528320    -0.518076830930     0.854385659332    78.918337087000
         H            1.010828144486    -0.709764935526    -0.998365133206     1.007825032070

  Running in c1 symmetry.

  Rotational constants: A =      0.24351  B =      0.06758  C =      0.05657 [cm^-1]
  Rotational constants: A =   7300.36876  B =   2025.92368  C =   1695.98436 [MHz]
  Nuclear repulsion =  378.768849583878762

  Charge       = 0
  Multiplicity = 1
  Electrons    = 68
  Nalpha       = 34
  Nbeta        = 34

  ==> Algorithm <==

  SCF Algorithm Type is DF.
  DIIS enabled.
  MOM disabled.
  Fractional occupation disabled.
  Guess Type is READ.
  Energy threshold   = 1.00e-08
  Density threshold  = 1.00e-08
  Integral threshold = 0.00e+00

  ==> Primary Basis <==

  Basis Set: ANONYMOUS50098001
    Blend: 6-311PPGSS + DEF2-TZVPP
    Number of shells: 81
    Number of basis function: 171
    Number of Cartesian functions: 182
    Spherical Harmonics?: true
    Max angular momentum: 3

  ==> DFT Potential <==

   => Composite Functional: M06-2X <= 

    Hybrid M06-2X Meta-GGA XC Functional

    Y. Zhao and D. G. Truhlar,  Theor. Chem. Acc., 120, 215, 2008


    Deriv               =              1
    GGA                 =           TRUE
    Meta                =           TRUE

    Exchange Hybrid     =           TRUE
    MP2 Hybrid          =          FALSE

   => Exchange Functionals <=

    1.0000   XC_HYB_MGGA_X_M06_2X

   => Exact (HF) Exchange <=

    0.5400               HF 

   => Correlation Functionals <=

    1.0000   XC_MGGA_C_M06_2X

   => Molecular Quadrature <=

    Radial Scheme       =       TREUTLER
    Pruning Scheme      =           FLAT
    Nuclear Scheme      =       TREUTLER

    BS radius alpha     =              1
    Pruning alpha       =              1
    Radial Points       =             75
    Spherical Points    =            302
    Total Points        =         226304
    Total Blocks        =           1762
    Max Points          =            256
    Max Functions       =            165

   => Loading Basis Set <=

    Name: (ANONYMOUS50098001 AUX)
    Role: JKFIT
    Keyword: DF_BASIS_SCF
    atoms 1, 6         entry C          line   162 file /root/psi4conda/share/psi4/basis/aug-cc-pvtz-jkfit.gbs 
    atoms 2-3          entry O          line   286 file /root/psi4conda/share/psi4/basis/aug-cc-pvtz-jkfit.gbs 
    atoms 4-5, 7-8, 10 entry H          line    70 file /root/psi4conda/share/psi4/basis/aug-cc-pvtz-jkfit.gbs 
    atoms 9            entry BR         line  3129 file /root/psi4conda/share/psi4/basis/def2-tzvpp-jkfit.gbs 

  Reading orbitals from file 180, no projection.

  ==> Pre-Iterations <==

   -------------------------------------------------------
    Irrep   Nso     Nmo     Nalpha   Nbeta   Ndocc  Nsocc
   -------------------------------------------------------
     A        171     171       0       0       0       0
   -------------------------------------------------------
    Total     171     171      34      34      34       0
   -------------------------------------------------------

  ==> Integral Setup <==

  DFHelper Memory: AOs need 0.254 [GiB]; user supplied 0.366 [GiB]. Using in-core AOs.

  ==> MemDFJK: Density-Fitted J/K Matrices <==

    J tasked:                   Yes
    K tasked:                   Yes
    wK tasked:                   No
    OpenMP threads:              16
    Memory (MB):                375
    Algorithm:                 Core
    Schwarz Cutoff:           1E-12
    Mask sparsity (%):       3.1052
    Fitting Condition:        1E-12

   => Auxiliary Basis Set <=

  Basis Set: (ANONYMOUS50098001 AUX)
    Blend: AUG-CC-PVTZ-JKFIT + DEF2-TZVPP-JKFIT
    Number of shells: 250
    Number of basis function: 912
    Number of Cartesian functions: 1170
    Spherical Harmonics?: true
    Max angular momentum: 5

  Minimum eigenvalue in the overlap matrix is 5.3929367478E-04.
  Using Symmetric Orthogonalization.

  SCF Guess: Orbitals guess was supplied from a previous computation.

  ==> Iterations <==

                           Total Energy        Delta E     RMS |[F,P]|

   @DF-RKS iter   0: -2803.58515123308189   -2.80359e+03   1.22407e-02 
   @DF-RKS iter   1: -2803.57880982737197    6.34141e-03   9.84871e-04 
   @DF-RKS iter   2: -2803.57930602681881   -4.96199e-04   1.04389e-03 DIIS
   @DF-RKS iter   3: -2803.57987187141953   -5.65845e-04   1.73742e-04 DIIS
   @DF-RKS iter   4: -2803.57989668886103   -2.48174e-05   7.79719e-05 DIIS
   @DF-RKS iter   5: -2803.57990128930032   -4.60044e-06   2.04548e-05 DIIS
   @DF-RKS iter   6: -2803.57990175328132   -4.63981e-07   1.09461e-05 DIIS
   @DF-RKS iter   7: -2803.57990187788619   -1.24605e-07   2.61210e-06 DIIS
   @DF-RKS iter   8: -2803.57990188908298   -1.11968e-08   1.38039e-06 DIIS
   @DF-RKS iter   9: -2803.57990189097472   -1.89175e-09   3.16226e-07 DIIS
   @DF-RKS iter  10: -2803.57990189119801   -2.23281e-10   1.01873e-07 DIIS
   @DF-RKS iter  11: -2803.57990189121665   -1.86446e-11   3.56345e-08 DIIS
   @DF-RKS iter  12: -2803.57990189122256   -5.91172e-12   1.01378e-08 DIIS
   @DF-RKS iter  13: -2803.57990189122484   -2.27374e-12   3.47225e-09 DIIS

  ==> Post-Iterations <==

    Orbital Energies [Eh]
    ---------------------

    Doubly Occupied:                                                      

       1A   -485.399348     2A    -63.391642     3A    -57.208213  
       4A    -57.207358     5A    -57.206840     6A    -19.664266  
       7A    -19.576864     8A    -10.681784     9A    -10.604558  
      10A     -9.065579    11A     -6.890700    12A     -6.881635  
      13A     -6.879711    14A     -2.926700    15A     -2.920840  
      16A     -2.919138    17A     -2.912178    18A     -2.912099  
      19A     -1.219878    20A     -1.113276    21A     -1.019532  
      22A     -0.808380    23A     -0.699663    24A     -0.629024  
      25A     -0.597833    26A     -0.572481    27A     -0.534079  
      28A     -0.517430    29A     -0.469334    30A     -0.451420  
      31A     -0.372378    32A     -0.358973    33A     -0.337210  
      34A     -0.329105  

    Virtual:                                                              

      35A     -0.006230    36A      0.014083    37A      0.026029  
      38A      0.029562    39A      0.030442    40A      0.052720  
      41A      0.067890    42A      0.076011    43A      0.085428  
      44A      0.096786    45A      0.107769    46A      0.122316  
      47A      0.128976    48A      0.138420    49A      0.150709  
      50A      0.175769    51A      0.199231    52A      0.205324  
      53A      0.211819    54A      0.222686    55A      0.229708  
      56A      0.244800    57A      0.256243    58A      0.274480  
      59A      0.280482    60A      0.300556    61A      0.318755  
      62A      0.328682    63A      0.361910    64A      0.364019  
      65A      0.377490    66A      0.395012    67A      0.402783  
      68A      0.426110    69A      0.463210    70A      0.471821  
      71A      0.479560    72A      0.493088    73A      0.533776  
      74A      0.540149    75A      0.553069    76A      0.608809  
      77A      0.654912    78A      0.656855    79A      0.674774  
      80A      0.703649    81A      0.714394    82A      0.771923  
      83A      0.796588    84A      0.919853    85A      0.987004  
      86A      1.010602    87A      1.043768    88A      1.067033  
      89A      1.095362    90A      1.161358    91A      1.175872  
      92A      1.204503    93A      1.215241    94A      1.253139  
      95A      1.299864    96A      1.332714    97A      1.355383  
      98A      1.364100    99A      1.387243   100A      1.453882  
     101A      1.457201   102A      1.466430   103A      1.482963  
     104A      1.508967   105A      1.528094   106A      1.555305  
     107A      1.565468   108A      1.594915   109A      1.601084  
     110A      1.641985   111A      1.670411   112A      1.695057  
     113A      1.718527   114A      1.721662   115A      1.746831  
     116A      1.763797   117A      1.798973   118A      1.843654  
     119A      1.869511   120A      1.879902   121A      1.980498  
     122A      2.000087   123A      2.045074   124A      2.087790  
     125A      2.156483   126A      2.165041   127A      2.221886  
     128A      2.302286   129A      2.360453   130A      2.454094  
     131A      2.520398   132A      2.533762   133A      2.553609  
     134A      2.589378   135A      2.617555   136A      2.708033  
     137A      2.748893   138A      2.768148   139A      2.877376  
     140A      2.936750   141A      2.959811   142A      3.006020  
     143A      3.114182   144A      3.145265   145A      3.197445  
     146A      3.254138   147A      3.486285   148A      3.584819  
     149A      3.725423   150A      3.781835   151A      3.834414  
     152A      3.886728   153A      3.927744   154A      4.059140  
     155A      4.065089   156A      4.075608   157A      4.165907  
     158A      4.248064   159A      4.279460   160A      4.357969  
     161A      5.222843   162A      5.253982   163A      5.312652  
     164A      5.330583   165A      5.648352   166A      5.764695  
     167A      7.961262   168A     23.974228   169A     24.271417  
     170A     50.000893   171A     50.128388  

    Final Occupation by Irrep:
              A 
    DOCC [    34 ]

  Energy converged.

  @DF-RKS Final Energy: -2803.57990189122484

   => Energetics <=

    Nuclear Repulsion Energy =            378.7688495838787617
    One-Electron Energy =               -4648.4719420364481266
    Two-Electron Energy =                1523.6114588700418153
    DFT Exchange-Correlation Energy =     -57.4882683086965471
    Empirical Dispersion Energy =           0.0000000000000000
    VV10 Nonlocal Energy =                  0.0000000000000000
    Total Energy =                      -2803.5799018912243810



Properties will be evaluated at   0.000000,   0.000000,   0.000000 [a0]

Properties computed using the SCF density matrix

  Nuclear Dipole Moment: [e a0]
     X:     7.9920      Y:     9.6716      Z:   -14.2079

  Electronic Dipole Moment: [e a0]
     X:    -6.7140      Y:    -9.2970      Z:    14.5382

  Dipole Moment: [e a0]
     X:     1.2779      Y:     0.3745      Z:     0.3303     Total:     1.3721

  Dipole Moment: [D]
     X:     3.2482      Y:     0.9520      Z:     0.8396     Total:     3.4874


*** tstop() called on localhost.localdomain at Thu Jan 17 13:12:36 2019
Module time:
	user time   =     160.23 seconds =       2.67 minutes
	system time =       2.20 seconds =       0.04 minutes
	total time  =         11 seconds =       0.18 minutes
Total time:
	user time   =     592.32 seconds =       9.87 minutes
	system time =      13.00 seconds =       0.22 minutes
	total time  =         44 seconds =       0.73 minutes

*** tstart() called on localhost.localdomain
*** at Thu Jan 17 13:12:36 2019


         ------------------------------------------------------------
                                   SCF GRAD                          
                          Rob Parrish, Justin Turney,                
                       Andy Simmonett, and Alex Sokolov              
         ------------------------------------------------------------

  ==> Geometry <==

    Molecular point group: c1
    Full point group: C1

    Geometry (in Angstrom), charge = 0, multiplicity = 1:

       Center              X                  Y                   Z               Mass       
    ------------   -----------------  -----------------  -----------------  -----------------
[...]
Module time:
	user time   =      54.27 seconds =       0.90 minutes
	system time =       2.33 seconds =       0.04 minutes
	total time  =          4 seconds =       0.07 minutes
Total time:
	user time   =    6559.15 seconds =     109.32 minutes
	system time =     165.41 seconds =       2.76 minutes
	total time  =        483 seconds =       8.05 minutes

			-----------------------------------------
			 OPTKING 2.0: for geometry optimizations 
			  - R.A. King,  Bethel University        
			-----------------------------------------

	Previous internal coordinate definitions found.
	---Fragment 1 Geometry and Gradient---
	 C           0.5168475621       -1.3083869122       -0.9910124834
	 O          -0.9009357309       -2.3788602374       -2.6700212675
	 O           1.2225919534        1.0049595079       -2.9417635178
	 H           0.1057595694       -0.5577503488       -4.0060525872
	 H           4.8731834528        1.5462174120       -1.6827117250
	 C           3.6380389725        2.1545911239       -3.2523178570
	 H           3.4132877752        4.2206145257       -3.1884075018
	 H           4.4751263867        1.5632389999       -5.0619914053
	 BR         -0.8915544196        0.0908972453        1.9681436635
	 H           2.3699007684       -2.1608902990       -0.5897897439
	            -0.0113968191        0.0087252357        0.0358091066
	            -0.0006341025       -0.0017635235       -0.0077932034
	            -0.0002937450       -0.0020030942       -0.0083469717
	             0.0035976852        0.0028567927        0.0000884407
	             0.0043079494       -0.0027313527        0.0064205014
	            -0.0070241498       -0.0001449465       -0.0010978056
	            -0.0010019852        0.0074089609        0.0007960763
	             0.0025063711       -0.0023908964       -0.0059473234
	             0.0082963766       -0.0068443639       -0.0159020824
	             0.0022514927       -0.0037951371       -0.0051393750

	---Fragment 1 Intrafragment Coordinates---
	 - Coordinate -           - BOHR/RAD -       - ANG/DEG -
	 H(2,4)           =         2.472824	       1.308562
	 R(1,2)           =         2.444400	       1.293521
	 R(1,3)           =         3.107262	       1.644292
	 R(1,9)           =         3.563453	       1.885698
	 R(1,10)          =         2.078833	       1.100071
	 R(2,9)           =         5.254747	       2.780692
	 R(3,4)           =         2.195925	       1.162034
	 R(3,6)           =         2.693043	       1.425097
	 R(3,9)           =         5.423312	       2.869893
	 R(5,6)           =         2.087909	       1.104874
	 R(6,7)           =         2.079195	       1.100262
	 R(6,8)           =         2.079743	       1.100553
	 B(1,2,9)         =         0.621258	      35.595475
	 B(1,3,4)         =         1.222758	      70.058848
	 B(1,3,6)         =         2.206731	     126.436376
	 B(1,3,9)         =         0.672299	      38.519894
	 B(1,9,2)         =         0.410722	      23.532634
	 B(1,9,3)         =         0.574074	      32.892026
	 B(2,1,3)         =         1.597347	      91.521249
	 B(2,1,9)         =         2.109612	     120.871891
	 B(2,1,10)        =         2.060086	     118.034256
	 B(2,9,3)         =         0.768158	      44.012231
	 B(3,1,9)         =         1.895220	     108.588080
	 B(3,1,10)        =         1.796732	     102.945137
	 B(3,6,5)         =         1.896013	     108.633535
	 B(3,6,7)         =         1.900421	     108.886082
	 B(3,6,8)         =         1.917679	     109.874920
	 B(4,3,6)         =         2.351908	     134.754414
	 B(4,3,9)         =         1.691670	      96.925526
	 B(5,6,7)         =         1.907494	     109.291352
	 B(5,6,8)         =         1.910474	     109.462120
	 B(6,3,9)         =         2.124678	     121.735100
	 B(7,6,8)         =         1.931350	     110.658193
	 B(9,1,10)        =         1.931643	     110.675014
	 D(1,2,9,3)       =         0.863235	      49.459735
	 D(1,3,6,5)       =        -0.218038	     -12.492664
	 D(1,3,6,7)       =        -2.293871	    -131.429120
	 D(1,3,6,8)       =         1.871489	     107.228407
	 D(1,3,9,2)       =        -0.592861	     -33.968450
	 D(1,9,3,4)       =         0.789435	      45.231303
	 D(1,9,3,6)       =        -1.922352	    -110.142628
	 D(2,1,3,4)       =        -0.140205	      -8.033171
	 D(2,1,3,6)       =        -2.435984	    -139.571622
	 D(2,1,3,9)       =         2.153739	     123.400127
	 D(2,1,9,3)       =        -1.806660	    -103.513999
	 D(2,9,1,3)       =         1.806660	     103.513999
	 D(2,9,1,10)      =        -2.516443	    -144.181568
	 D(2,9,3,4)       =         0.196574	      11.262852
	 D(2,9,3,6)       =        -2.515213	    -144.111078
	 D(3,1,2,9)       =        -1.968593	    -112.792061
	 D(3,9,1,10)      =         1.960082	     112.304433
	 D(4,3,1,9)       =        -2.293944	    -131.433298
	 D(4,3,1,10)      =         1.940996	     111.210859
	 D(4,3,6,5)       =        -1.924223	    -110.249847
	 D(4,3,6,7)       =         2.283130	     130.813698
	 D(4,3,6,8)       =         0.165304	       9.471224
	 D(5,6,3,9)       =         0.595564	      34.123308
	 D(6,3,1,9)       =         1.693462	      97.028251
	 D(6,3,1,10)      =        -0.354783	     -20.327591
	 D(7,6,3,9)       =        -1.480269	     -84.813147
	 D(8,6,3,9)       =         2.685091	     153.844380
	 D(9,2,1,10)      =         2.472451	     141.661028
	 D(9,3,1,10)      =        -2.048246	    -117.355843

	Current energy   :     -2803.7462411324

	Energy change for the previous step:
		Projected    :        -0.0012889737
		Actual       :        -0.0014467859

	Performing Bofill update.
	Previous computed or guess Hessian on step 1.
	Steps to be used in Hessian update: 33 32
	Taking PRFO optimization step.
	Maximizing along 1 lowest eigenvalue of Hessian.

 RFO min eigenvalues
 -0.002785 -0.000000 -0.000000 -0.000000 -0.000000 -0.000000 -0.000000 -0.000000
 -0.000000 -0.000000 -0.000000 -0.000000 -0.000000 -0.000000 -0.000000 -0.000000
 -0.000000 -0.000000 -0.000000 -0.000000 -0.000000 -0.000000 -0.000000 -0.000000
 -0.000000  0.000000  0.000000  0.000000  0.000000  0.000000  0.000000  0.000000
  0.000000  0.000000  0.000000  0.000000  0.000000  0.000000  0.000000  0.000000
  0.002723  0.007858  0.043744  0.055943  0.058760  0.073467  0.081503  0.110599
  0.117924  0.130685  0.155756  0.159882  0.160502  0.162050  0.167074  0.286253
  0.343430  0.344391  0.348085  0.350251  0.409678  0.461632  6.917456

 RFO max eigenvalues
 -0.024954  0.000057
	Change in coordinate exceeds step limit of    0.50000.
	Scaling displacements by    0.68888
	|RFO target step|  :        0.5000000000
	RFO gradient       :       -0.0037584784
	RFO hessian        :        0.0024052491
	Projected Delta(E) :       -0.0012628665

	Back-transformation to cartesian coordinates...
	Could not converge backtransformation.
	Using first guess instead.

	--- Internal Coordinate Step in ANG or DEG, aJ/ANG or AJ/DEG ---
	 ---------------------------------------------------------------------------
	   Coordinate                Previous        Force       Change         New 
	   ----------                --------       ------       ------       ------
	    1 H(2,4)          =      1.308562    -0.011183     0.012210     1.320772
	    2 R(1,2)          =      1.293521    -0.058225    -0.000292     1.293229
	    3 R(1,3)          =      1.644292    -0.054652    -0.028081     1.616211
	    4 R(1,9)          =      1.885698     0.112506     0.014983     1.900681
	    5 R(1,10)         =      1.100071    -0.020317     0.001089     1.101160
	    6 R(2,9)          =      2.780692     0.017327     0.012653     2.793345
	    7 R(3,4)          =      1.162034     0.027326    -0.004336     1.157698
	    8 R(3,6)          =      1.425097     0.002726     0.003701     1.428798
	    9 R(3,9)          =      2.869893     0.017429    -0.021437     2.848456
	   10 R(5,6)          =      1.104874    -0.067389    -0.000022     1.104852
	   11 R(6,7)          =      1.100262    -0.061722    -0.000816     1.099447
	   12 R(6,8)          =      1.100553    -0.056226    -0.000443     1.100110
	   13 B(1,2,9)        =     35.595475     0.000294     0.166550    35.762025
	   14 B(1,3,4)        =     70.058848    -0.000056     0.774321    70.833169
	   15 B(1,3,6)        =    126.436376    -0.000116    -2.190193   124.246183
	   16 B(1,3,9)        =     38.519894     0.000252     0.896032    39.415926
	   17 B(1,9,2)        =     23.532634    -0.000044    -0.101830    23.430804
	   18 B(1,9,3)        =     32.892026    -0.000089    -0.214191    32.677835
	   19 B(2,1,3)        =     91.521249     0.000288     1.137003    92.658253
	   20 B(2,1,9)        =    120.871891    -0.000250    -0.064720   120.807171
	   21 B(2,1,10)       =    118.034256     0.000230     0.635728   118.669985
	   22 B(2,9,3)        =     44.012231    -0.000064     0.035166    44.047397
	   23 B(3,1,9)        =    108.588080    -0.000164    -0.681841   107.906239
	   24 B(3,1,10)       =    102.945137     0.000047     0.548795   103.493933
	   25 B(3,6,5)        =    108.633535     0.000080     0.495378   109.128913
	   26 B(3,6,7)        =    108.886082     0.000004    -0.101232   108.784849
	   27 B(3,6,8)        =    109.874920     0.000037    -0.663855   109.211065
	   28 B(4,3,6)        =    134.754414     0.000041    -1.724807   133.029607
	   29 B(4,3,9)        =     96.925526     0.000093     1.246283    98.171809
	   30 B(5,6,7)        =    109.291352    -0.000025     0.281098   109.572450
	   31 B(5,6,8)        =    109.462120    -0.000045     0.039217   109.501337
	   32 B(6,3,9)        =    121.735100    -0.000116    -0.543697   121.191403
	   33 B(7,6,8)        =    110.658193    -0.000048    -0.041101   110.617092
	   34 B(9,1,10)       =    110.675014    -0.000077    -1.138399   109.536615
	   35 D(1,2,9,3)      =     49.459735    -0.000027    -0.693150    48.766585
	   36 D(1,3,6,5)      =    -12.492664    -0.000033     8.153559    -4.339106
	   37 D(1,3,6,7)      =   -131.429120    -0.000037     7.584974  -123.844146
	   38 D(1,3,6,8)      =    107.228407    -0.000029     8.104578   115.332985
	   39 D(1,3,9,2)      =    -33.968450     0.000010     0.336064   -33.632386
	   40 D(1,9,3,4)      =     45.231303     0.000014     0.573071    45.804373
	   41 D(1,9,3,6)      =   -110.142628     0.000002     2.718647  -107.423981
	   42 D(2,1,3,4)      =     -8.033171    -0.000026     0.367430    -7.665741
	   43 D(2,1,3,6)      =   -139.571622    -0.000024     2.314383  -137.257238
	   44 D(2,1,3,9)      =    123.400127    -0.000044     0.228160   123.628287
	   45 D(2,1,9,3)      =   -103.513999    -0.000029    -0.928876  -104.442875
	   46 D(2,9,1,3)      =    103.513999     0.000029     0.928876   104.442875
	   47 D(2,9,1,10)     =   -144.181568     0.000012     0.639679  -143.541888
	   48 D(2,9,3,4)      =     11.262852     0.000024     0.909135    12.171987
	   49 D(2,9,3,6)      =   -144.111078     0.000012     3.054711  -141.056367
	   50 D(3,1,2,9)      =   -112.792061     0.000017     0.083617  -112.708444
	   51 D(3,9,1,10)     =    112.304433    -0.000017    -0.289196   112.015237
	   52 D(4,3,1,9)      =   -131.433298     0.000018     0.139270  -131.294028
	   53 D(4,3,1,10)     =    111.210859     0.000049     1.458520   112.669380
	   54 D(4,3,6,5)      =   -110.249847     0.000009    10.623039   -99.626808
	   55 D(4,3,6,7)      =    130.813698     0.000005    10.054454   140.868152
	   56 D(4,3,6,8)      =      9.471224     0.000013    10.574058    20.045282
	   57 D(5,6,3,9)      =     34.123308     0.000024     8.665183    42.788491
	   58 D(6,3,1,9)      =     97.028251     0.000020     2.086223    99.114475
	   59 D(6,3,1,10)     =    -20.327591     0.000051     3.405474   -16.922117
	   60 D(7,6,3,9)      =    -84.813147     0.000020     8.096598   -76.716549
	   61 D(8,6,3,9)      =    153.844380     0.000028     8.616202   162.460581
	   62 D(9,2,1,10)     =    141.661028    -0.000041    -1.324565   140.336463
	   63 D(9,3,1,10)     =   -117.355843     0.000031     1.319251  -116.036592
	 ---------------------------------------------------------------------------
	Successfully symmetrized geometry.

  ==> Convergence Check <==

  Measures of convergence in internal coordinates in au.
  Criteria marked as inactive (o), active & met (*), and active & unmet ( ).
  ---------------------------------------------------------------------------------------------
   Step     Total Energy     Delta E     MAX Force     RMS Force      MAX Disp      RMS Disp   
  ---------------------------------------------------------------------------------------------
    Convergence Criteria    1.00e-06 *    3.00e-04 *             o    1.20e-03 *             o
  ---------------------------------------------------------------------------------------------
     34   -2803.74624113   -1.45e-03      1.37e-02      3.15e-03 o    1.85e-01      6.28e-02 o  ~
  ---------------------------------------------------------------------------------------------

	Writing optimization data to binary file.
	Structure for next step:
	Cartesian Geometry (in Angstrom)
	    C     0.2859252523  -0.6649927201  -0.5315806515
	    O    -0.4256189815  -1.3027064697  -1.4030554575
	    O     0.6248533125   0.5268692245  -1.5692372967
	    H     0.0775656242  -0.3235340164  -2.1327573041
	    H     2.6005640236   0.6917380959  -0.9641333289
	    C     1.9156297414   1.1214291448  -1.7170801009
	    H     1.8263979083   2.2055895363  -1.5576525319
	    H     2.2988350327   0.9085090416  -2.7260695950
	   BR    -0.5211463240   0.1097968417   1.0049493795
	    H     1.2772981618  -1.0635790899  -0.2653794283
			--------------------------
			 OPTKING Finished Execution 
			--------------------------

    Structure for next step:
    Molecular point group: c1
    Full point group: C1

    Geometry (in Angstrom), charge = 0, multiplicity = 1:

    C            0.310068006417    -0.694792660320    -0.510698601894
    O           -0.401476227376    -1.332506409967    -1.382173407827
    O            0.648996066616     0.497069284224    -1.548355247027
    H            0.101708378330    -0.353333956624    -2.111875254469
    H            2.624706777758     0.661938155694    -0.943251279242
    C            1.939772495525     1.091629204594    -1.696198051233
    H            1.850540662497     2.175789596041    -1.536770482233
    H            2.322977786859     0.878709101341    -2.705187545341
    BR          -0.497003569848     0.079996901477     1.025831429182
    H            1.301440915997    -1.093379030162    -0.244497378676

gradient() will perform analytic gradient computation.

*** tstart() called on localhost.localdomain
*** at Thu Jan 17 13:19:56 2019

   => Loading Basis Set <=

    Name: ANONYMOUS50098001
    Role: ORBITAL
    Keyword: BASIS
    atoms 1, 6         entry C          line   119 file /root/psi4conda/share/psi4/basis/6-311ppgss.gbs 
    atoms 2-3          entry O          line   161 file /root/psi4conda/share/psi4/basis/6-311ppgss.gbs 
    atoms 4-5, 7-8, 10 entry H          line    42 file /root/psi4conda/share/psi4/basis/6-311ppgss.gbs 
    atoms 9            entry BR         line  1545 file /root/psi4conda/share/psi4/basis/def2-tzvpp.gbs 


         ---------------------------------------------------------
                                   SCF
            by Justin Turney, Rob Parrish, Andy Simmonett
                             and Daniel Smith
                              RKS Reference
                       16 Threads,    500 MiB Core
         ---------------------------------------------------------

  ==> Geometry <==

    Molecular point group: c1
    Full point group: C1

    Geometry (in Angstrom), charge = 0, multiplicity = 1:

       Center              X                  Y                   Z               Mass       
    ------------   -----------------  -----------------  -----------------  -----------------
         C            0.310068006417    -0.694792660320    -0.510698601894    12.000000000000
         O           -0.401476227376    -1.332506409967    -1.382173407827    15.994914619560
         O            0.648996066616     0.497069284224    -1.548355247027    15.994914619560
         H            0.101708378330    -0.353333956624    -2.111875254469     1.007825032070
         H            2.624706777758     0.661938155694    -0.943251279242     1.007825032070
         C            1.939772495525     1.091629204594    -1.696198051233    12.000000000000
         H            1.850540662497     2.175789596041    -1.536770482233     1.007825032070
         H            2.322977786859     0.878709101341    -2.705187545341     1.007825032070
         BR          -0.497003569848     0.079996901477     1.025831429182    78.918337087000
         H            1.301440915997    -1.093379030162    -0.244497378676     1.007825032070

  Running in c1 symmetry.

  Rotational constants: A =      0.18430  B =      0.06119  C =      0.04837 [cm^-1]
  Rotational constants: A =   5525.21013  B =   1834.46334  C =   1449.98521 [MHz]
  Nuclear repulsion =  344.674645866956780

  Charge       = 0
  Multiplicity = 1
  Electrons    = 68
  Nalpha       = 34
  Nbeta        = 34

  ==> Algorithm <==

  SCF Algorithm Type is DF.
  DIIS enabled.
  MOM disabled.
  Fractional occupation disabled.
  Guess Type is READ.
  Energy threshold   = 1.00e-08
  Density threshold  = 1.00e-08
  Integral threshold = 0.00e+00

  ==> Primary Basis <==

  Basis Set: ANONYMOUS50098001
    Blend: 6-311PPGSS + DEF2-TZVPP
    Number of shells: 81
    Number of basis function: 171
    Number of Cartesian functions: 182
    Spherical Harmonics?: true
    Max angular momentum: 3

  ==> DFT Potential <==

   => Composite Functional: M06-2X <= 

    Hybrid M06-2X Meta-GGA XC Functional

    Y. Zhao and D. G. Truhlar,  Theor. Chem. Acc., 120, 215, 2008


    Deriv               =              1
    GGA                 =           TRUE
    Meta                =           TRUE

    Exchange Hybrid     =           TRUE
    MP2 Hybrid          =          FALSE

   => Exchange Functionals <=

    1.0000   XC_HYB_MGGA_X_M06_2X

   => Exact (HF) Exchange <=

    0.5400               HF 

   => Correlation Functionals <=

    1.0000   XC_MGGA_C_M06_2X

   => Molecular Quadrature <=

    Radial Scheme       =       TREUTLER
    Pruning Scheme      =           FLAT
    Nuclear Scheme      =       TREUTLER

    BS radius alpha     =              1
    Pruning alpha       =              1
    Radial Points       =             75
    Spherical Points    =            302
    Total Points        =         226317
    Total Blocks        =           1743
    Max Points          =            256
    Max Functions       =            163

   => Loading Basis Set <=

    Name: (ANONYMOUS50098001 AUX)
    Role: JKFIT
    Keyword: DF_BASIS_SCF
    atoms 1, 6         entry C          line   162 file /root/psi4conda/share/psi4/basis/aug-cc-pvtz-jkfit.gbs 
    atoms 2-3          entry O          line   286 file /root/psi4conda/share/psi4/basis/aug-cc-pvtz-jkfit.gbs 
    atoms 4-5, 7-8, 10 entry H          line    70 file /root/psi4conda/share/psi4/basis/aug-cc-pvtz-jkfit.gbs 
    atoms 9            entry BR         line  3129 file /root/psi4conda/share/psi4/basis/def2-tzvpp-jkfit.gbs 

  Reading orbitals from file 180, no projection.

  ==> Pre-Iterations <==

   -------------------------------------------------------
    Irrep   Nso     Nmo     Nalpha   Nbeta   Ndocc  Nsocc
   -------------------------------------------------------
     A        171     171       0       0       0       0
   -------------------------------------------------------
    Total     171     171      34      34      34       0
   -------------------------------------------------------

  ==> Integral Setup <==

  DFHelper Memory: AOs need 0.252 [GiB]; user supplied 0.366 [GiB]. Using in-core AOs.

