
    -----------------------------------------------------------------------
          Psi4: An Open-Source Ab Initio Electronic Structure Package
                               Psi4 1.2.1 release

                         Git: Rev {HEAD} 406f4de 


    R. M. Parrish, L. A. Burns, D. G. A. Smith, A. C. Simmonett,
    A. E. DePrince III, E. G. Hohenstein, U. Bozkaya, A. Yu. Sokolov,
    R. Di Remigio, R. M. Richard, J. F. Gonthier, A. M. James,
    H. R. McAlexander, A. Kumar, M. Saitow, X. Wang, B. P. Pritchard,
    P. Verma, H. F. Schaefer III, K. Patkowski, R. A. King, E. F. Valeev,
    F. A. Evangelista, J. M. Turney, T. D. Crawford, and C. D. Sherrill,
    J. Chem. Theory Comput. 13(7) pp 3185--3197 (2017).
    (doi: 10.1021/acs.jctc.7b00174)


                         Additional Contributions by
    P. Kraus, H. Kruse, M. H. Lechner, M. C. Schieber, and R. A. Shaw

    -----------------------------------------------------------------------


    Psi4 started on: Tuesday, 15 January 2019 08:51AM

    Process ID: 31067
    Host:       localhost.localdomain
    PSIDATADIR: /root/psi4conda/share/psi4
    Memory:     500.0 MiB
    Threads:    1
    
  ==> Input File <==

--------------------------------------------------------------------------
molecule{
0 1
C   0.2152682544   0.7725305061   0.9750347684  
O   0.2530095392   0.9393588143  -0.6297009162  
C  -1.8669628129   1.5226835075  -0.3664671325  
H  -2.5478588231   2.3596221130  -0.2545028257  
N  -0.7213562301   1.8185938224  -0.9197903508  
O  -0.8248833857   1.2867374851   1.4202951466  
N   1.2024917238   0.1572267237   1.4336354725  
C  -0.2476242837   3.1926266650  -0.9983729581  
H   0.5233995263   3.2399442160  -1.7610766980  
H  -1.0752549240   3.8441556510  -1.2662029336  
H   0.1669617715   3.4739535944  -0.0291965296  
C   2.2683136754  -0.2874814007   0.5569374105  
H   1.9259853294  -1.0394673280  -0.1587479644  
H   2.7074328381   0.5337119040  -0.0146453256  
H   3.0502495197  -0.7352907491   1.1663256452  
C  -2.4291945040   0.1521414552  -0.3186269626  
H  -2.9793592202   0.0258685037   0.6101873341  
H  -3.1248861693   0.0383941563  -1.1539833381  
H  -1.6484397850  -0.5980842800  -0.3874453519  
}

set{
   basis 6-31+G(d)
   freeze_core True
   opt_type ts
}

optimize('mp2')
--------------------------------------------------------------------------
gradient() will perform analytic gradient computation.

*** tstart() called on localhost.localdomain
*** at Tue Jan 15 08:51:50 2019

    SCF Algorithm Type (re)set to DF.

*** tstart() called on localhost.localdomain
*** at Tue Jan 15 08:51:50 2019

   => Loading Basis Set <=

    Name: 6-31+G(D)
    Role: ORBITAL
    Keyword: BASIS
    atoms 1, 3, 8, 12, 16       entry C          line   119 file /root/psi4conda/share/psi4/basis/6-31pg_d_.gbs 
    atoms 2, 6                  entry O          line   157 file /root/psi4conda/share/psi4/basis/6-31pg_d_.gbs 
    atoms 4, 9-11, 13-15, 17-19 entry H          line    46 file /root/psi4conda/share/psi4/basis/6-31pg_d_.gbs 
    atoms 5, 7                  entry N          line   138 file /root/psi4conda/share/psi4/basis/6-31pg_d_.gbs 


         ---------------------------------------------------------
                                   SCF
            by Justin Turney, Rob Parrish, Andy Simmonett
                             and Daniel Smith
                              RHF Reference
                        1 Threads,    500 MiB Core
         ---------------------------------------------------------

  ==> Geometry <==

    Molecular point group: c1
    Full point group: C1

    Geometry (in Angstrom), charge = 0, multiplicity = 1:

       Center              X                  Y                   Z               Mass       
    ------------   -----------------  -----------------  -----------------  -----------------
         C            0.447115507458    -0.294043507601     0.861651460317    12.000000000000
         O            0.484856792258    -0.127215199401    -0.743084224283    15.994914619560
         C           -1.635115559842     0.456109493799    -0.479850440583    12.000000000000
         H           -2.316011570042     1.293048099299    -0.367886133783     1.007825032070
         N           -0.489508977042     0.752019808699    -1.033173658883    14.003074004780
         O           -0.593036132642     0.220163471399     1.306911838517    15.994914619560
         N            1.434338976858    -0.909347290001     1.320252164417    14.003074004780
         C           -0.015777030642     2.126052651299    -1.111756266183    12.000000000000
         H            0.755246779358     2.173370202299    -1.874460006083     1.007825032070
         H           -0.843407670942     2.777581637299    -1.379586241683     1.007825032070
         H            0.398809024558     2.407379580699    -0.142579837683     1.007825032070
         C            2.500160928458    -1.354055414401     0.443554102417    12.000000000000
         H            2.157832582458    -2.106041341701    -0.272131272483     1.007825032070
         H            2.939280091158    -0.532862109701    -0.128028633683     1.007825032070
         H            3.282096772758    -1.801864762801     1.052942337117     1.007825032070
         C           -2.197347250942    -0.914432558501    -0.432010270683    12.000000000000
         H           -2.747511967142    -1.040705510001     0.496804026017     1.007825032070
         H           -2.893038916242    -1.028179857401    -1.267366646183     1.007825032070
         H           -1.416592531942    -1.664658293701    -0.500828659983     1.007825032070

  Running in c1 symmetry.

  Rotational constants: A =      0.08483  B =      0.04443  C =      0.03696 [cm^-1]
  Rotational constants: A =   2543.12111  B =   1332.12385  C =   1108.02559 [MHz]
  Nuclear repulsion =  491.197428258874254

  Charge       = 0
  Multiplicity = 1
  Electrons    = 70
  Nalpha       = 35
  Nbeta        = 35

  ==> Algorithm <==

  SCF Algorithm Type is DF.
  DIIS enabled.
  MOM disabled.
  Fractional occupation disabled.
  Guess Type is SAD.
  Energy threshold   = 1.00e-10
  Density threshold  = 1.00e-10
  Integral threshold = 0.00e+00

  ==> Primary Basis <==

  Basis Set: 6-31+G(D)
    Blend: 6-31+G(D)
    Number of shells: 92
    Number of basis function: 191
    Number of Cartesian functions: 191
    Spherical Harmonics?: false
    Max angular momentum: 2

   => Loading Basis Set <=

    Name: (6-31+G(D) AUX)
    Role: JKFIT
    Keyword: DF_BASIS_SCF
    atoms 1, 3, 8, 12, 16       entry C          line   194 file /root/psi4conda/share/psi4/basis/heavy-aug-cc-pvdz-jkfit.gbs 
    atoms 2, 6                  entry O          line   310 file /root/psi4conda/share/psi4/basis/heavy-aug-cc-pvdz-jkfit.gbs 
    atoms 4, 9-11, 13-15, 17-19 entry H          line   116 file /root/psi4conda/share/psi4/basis/heavy-aug-cc-pvdz-jkfit.gbs 
    atoms 5, 7                  entry N          line   252 file /root/psi4conda/share/psi4/basis/heavy-aug-cc-pvdz-jkfit.gbs 

  ==> Pre-Iterations <==

   -------------------------------------------------------
    Irrep   Nso     Nmo     Nalpha   Nbeta   Ndocc  Nsocc
   -------------------------------------------------------
     A        191     191       0       0       0       0
   -------------------------------------------------------
    Total     191     191      35      35      35       0
   -------------------------------------------------------

  ==> Integral Setup <==

  ==> DiskDFJK: Density-Fitted J/K Matrices <==

    J tasked:                  Yes
    K tasked:                  Yes
    wK tasked:                  No
    OpenMP threads:              1
    Integrals threads:           1
    Memory (MB):               375
    Algorithm:                Core
    Integral Cache:           NONE
    Schwarz Cutoff:          1E-12
    Fitting Condition:       1E-12

   => Auxiliary Basis Set <=

  Basis Set: (6-31+G(D) AUX)
    Blend: HEAVY-AUG-CC-PVDZ-JKFIT
    Number of shells: 342
    Number of basis function: 1159
    Number of Cartesian functions: 1159
    Spherical Harmonics?: false
    Max angular momentum: 3

  Minimum eigenvalue in the overlap matrix is 5.0234506544E-05.
  Using Symmetric Orthogonalization.

  SCF Guess: Superposition of Atomic Densities via on-the-fly atomic UHF.

  ==> Iterations <==

                           Total Energy        Delta E     RMS |[F,P]|

   @DF-RHF iter   0:  -457.17613116779222   -4.57176e+02   2.88158e-02 
   @DF-RHF iter   1:  -453.40718732361165    3.76894e+00   3.13669e-03 
   @DF-RHF iter   2:  -453.59759544447599   -1.90408e-01   1.74924e-03 DIIS
   @DF-RHF iter   3:  -453.64425330101813   -4.66579e-02   5.21012e-04 DIIS
   @DF-RHF iter   4:  -453.65337907563156   -9.12577e-03   1.97966e-04 DIIS
   @DF-RHF iter   5:  -453.65477815240422   -1.39908e-03   8.78518e-05 DIIS
   @DF-RHF iter   6:  -453.65518069389435   -4.02541e-04   3.63485e-05 DIIS
   @DF-RHF iter   7:  -453.65527990598571   -9.92121e-05   1.53524e-05 DIIS
   @DF-RHF iter   8:  -453.65529260639136   -1.27004e-05   5.34690e-06 DIIS
   @DF-RHF iter   9:  -453.65529444310977   -1.83672e-06   2.13599e-06 DIIS
   @DF-RHF iter  10:  -453.65529463937105   -1.96261e-07   6.90496e-07 DIIS
   @DF-RHF iter  11:  -453.65529466455138   -2.51803e-08   1.91486e-07 DIIS
   @DF-RHF iter  12:  -453.65529466593875   -1.38738e-09   8.94762e-08 DIIS
   @DF-RHF iter  13:  -453.65529466620262   -2.63867e-10   2.52719e-08 DIIS
   @DF-RHF iter  14:  -453.65529466623298   -3.03544e-11   1.13340e-08 DIIS
   @DF-RHF iter  15:  -453.65529466623775   -4.77485e-12   3.85294e-09 DIIS
   @DF-RHF iter  16:  -453.65529466623957   -1.81899e-12   1.58734e-09 DIIS
   @DF-RHF iter  17:  -453.65529466623718    2.38742e-12   6.94163e-10 DIIS
   @DF-RHF iter  18:  -453.65529466623923   -2.04636e-12   2.24118e-10 DIIS
   @DF-RHF iter  19:  -453.65529466624173   -2.50111e-12   1.12254e-10 DIIS
   @DF-RHF iter  20:  -453.65529466624093    7.95808e-13   4.50828e-11 DIIS

  ==> Post-Iterations <==

    Orbital Energies [Eh]
    ---------------------

    Doubly Occupied:                                                      

       1A    -20.619445     2A    -20.542321     3A    -15.695672  
       4A    -15.512321     5A    -11.385000     6A    -11.364328  
       7A    -11.293828     8A    -11.263811     9A    -11.224606  
      10A     -1.494159    11A     -1.364114    12A     -1.232032  
      13A     -1.173177    14A     -1.078693    15A     -0.977536  
      16A     -0.917685    17A     -0.846859    18A     -0.765275  
      19A     -0.731631    20A     -0.707939    21A     -0.679934  
      22A     -0.634560    23A     -0.625211    24A     -0.617932  
      25A     -0.593875    26A     -0.588164    27A     -0.581598  
      28A     -0.569707    29A     -0.538493    30A     -0.531763  
      31A     -0.504039    32A     -0.461497    33A     -0.439664  
      34A     -0.367198    35A     -0.341484  

    Virtual:                                                              

      36A      0.050631    37A      0.070224    38A      0.077070  
      39A      0.080648    40A      0.098820    41A      0.101934  
      42A      0.110915    43A      0.116534    44A      0.118175  
      45A      0.126213    46A      0.137201    47A      0.146189  
      48A      0.159393    49A      0.166148    50A      0.169841  
      51A      0.178579    52A      0.191242    53A      0.208866  
      54A      0.215483    55A      0.221364    56A      0.233558  
      57A      0.241241    58A      0.250846    59A      0.282663  
      60A      0.307588    61A      0.313934    62A      0.318830  
      63A      0.333387    64A      0.339363    65A      0.345455  
      66A      0.348941    67A      0.355932    68A      0.366085  
      69A      0.377202    70A      0.395427    71A      0.403968  
      72A      0.406541    73A      0.410361    74A      0.420966  
      75A      0.421495    76A      0.432116    77A      0.442371  
      78A      0.454401    79A      0.459112    80A      0.466058  
      81A      0.490767    82A      0.495288    83A      0.510375  
      84A      0.525590    85A      0.527613    86A      0.540454  
      87A      0.574952    88A      0.605460    89A      0.607600  
      90A      0.697334    91A      0.796605    92A      0.834183  
      93A      0.864684    94A      0.905297    95A      0.925339  
      96A      0.939001    97A      0.953517    98A      0.959812  
      99A      0.974310   100A      0.987610   101A      0.999206  
     102A      1.029829   103A      1.034198   104A      1.105443  
     105A      1.121021   106A      1.153720   107A      1.167301  
     108A      1.187741   109A      1.202333   110A      1.211770  
     111A      1.230737   112A      1.261719   113A      1.266152  
     114A      1.279551   115A      1.285431   116A      1.320067  
     117A      1.334614   118A      1.356219   119A      1.372162  
     120A      1.385339   121A      1.393785   122A      1.416182  
     123A      1.441255   124A      1.451863   125A      1.476735  
     126A      1.523008   127A      1.538652   128A      1.593641  
     129A      1.597599   130A      1.660470   131A      1.683434  
     132A      1.694090   133A      1.715447   134A      1.751001  
     135A      1.756044   136A      1.788925   137A      1.812498  
     138A      1.833238   139A      1.894867   140A      1.907419  
     141A      1.927941   142A      1.984010   143A      2.031899  
     144A      2.056863   145A      2.077909   146A      2.138609  
     147A      2.164285   148A      2.204648   149A      2.225334  
     150A      2.260139   151A      2.310055   152A      2.321488  
     153A      2.339021   154A      2.382737   155A      2.448362  
     156A      2.473759   157A      2.477269   158A      2.498487  
     159A      2.541694   160A      2.551552   161A      2.565924  
     162A      2.579037   163A      2.609301   164A      2.617066  
     165A      2.674217   166A      2.702254   167A      2.727186  
     168A      2.765777   169A      2.805337   170A      2.857577  
     171A      2.968464   172A      2.996142   173A      3.064521  
     174A      3.088811   175A      3.136226   176A      3.168611  
     177A      3.221619   178A      3.293075   179A      3.390507  
     180A      3.462330   181A      3.507534   182A      3.687048  
     183A      4.592537   184A      4.690228   185A      4.698165  
     186A      4.793630   187A      4.801599   188A      4.873307  
     189A      4.931263   190A      4.965661   191A      5.169194  

    Final Occupation by Irrep:
              A 
    DOCC [    35 ]

  Energy converged.

  @DF-RHF Final Energy:  -453.65529466624093

   => Energetics <=

    Nuclear Repulsion Energy =            491.1974282588742540
    One-Electron Energy =               -1593.1743465135384668
    Two-Electron Energy =                 648.3216235884233356
    Total Energy =                       -453.6552946662409340



Properties will be evaluated at   0.000000,   0.000000,   0.000000 [a0]

Properties computed using the SCF density matrix

  Nuclear Dipole Moment: [e a0]
     X:    -0.6438      Y:     0.4481      Z:    -4.1072

  Electronic Dipole Moment: [e a0]
     X:    -0.9898      Y:     0.6621      Z:     2.1069

  Dipole Moment: [e a0]
     X:    -1.6337      Y:     1.1102      Z:    -2.0003     Total:     2.8111

  Dipole Moment: [D]
     X:    -4.1523      Y:     2.8219      Z:    -5.0842     Total:     7.1452


*** tstop() called on localhost.localdomain at Tue Jan 15 08:52:05 2019
Module time:
	user time   =      15.32 seconds =       0.26 minutes
	system time =       0.46 seconds =       0.01 minutes
	total time  =         15 seconds =       0.25 minutes
Total time:
	user time   =      15.32 seconds =       0.26 minutes
	system time =       0.46 seconds =       0.01 minutes
	total time  =         15 seconds =       0.25 minutes

  //>>>>>>>>>>>>>>>>>>>>>>>>>>>>>>>>>>>//
  //               DFMP2               //
  //<<<<<<<<<<<<<<<<<<<<<<<<<<<<<<<<<<<//

   => Loading Basis Set <=

    Name: (6-31+G(D) AUX)
    Role: RIFIT
    Keyword: DF_BASIS_MP2
    atoms 1, 3, 8, 12, 16       entry C          line   116 file /root/psi4conda/share/psi4/basis/heavy-aug-cc-pvdz-ri.gbs 
    atoms 2, 6                  entry O          line   208 file /root/psi4conda/share/psi4/basis/heavy-aug-cc-pvdz-ri.gbs 
    atoms 4, 9-11, 13-15, 17-19 entry H          line    44 file /root/psi4conda/share/psi4/basis/heavy-aug-cc-pvdz-ri.gbs 
    atoms 5, 7                  entry N          line   162 file /root/psi4conda/share/psi4/basis/heavy-aug-cc-pvdz-ri.gbs 

	 --------------------------------------------------------
	                          DF-MP2                         
	      2nd-Order Density-Fitted Moller-Plesset Theory     
	              RMP2 Wavefunction,   1 Threads             
	                                                         
	        Rob Parrish, Justin Turney, Andy Simmonett,      
	           Ed Hohenstein, and C. David Sherrill          
	 --------------------------------------------------------

   => Auxiliary Basis Set <=

  Basis Set: (6-31+G(D) AUX)
    Blend: HEAVY-AUG-CC-PVDZ-RI
    Number of shells: 258
    Number of basis function: 788
    Number of Cartesian functions: 924
    Spherical Harmonics?: true
    Max angular momentum: 3

	 --------------------------------------------------------
	                 NBF =   191, NAUX =   788
	 --------------------------------------------------------
	   CLASS    FOCC     OCC    AOCC    AVIR     VIR    FVIR
	   PAIRS       9      35      26     156     156       0
	 --------------------------------------------------------


         ------------------------------------------------------------
                                     CPHF                           
                                  Rob Parrish                       
         ------------------------------------------------------------

  ==> Geometry <==

    Molecular point group: c1
    Full point group: C1

    Geometry (in Angstrom), charge = 0, multiplicity = 1:

       Center              X                  Y                   Z               Mass       
    ------------   -----------------  -----------------  -----------------  -----------------
         C            0.447115507458    -0.294043507601     0.861651460317    12.000000000000
         O            0.484856792258    -0.127215199401    -0.743084224283    15.994914619560
         C           -1.635115559842     0.456109493799    -0.479850440583    12.000000000000
         H           -2.316011570042     1.293048099299    -0.367886133783     1.007825032070
         N           -0.489508977042     0.752019808699    -1.033173658883    14.003074004780
         O           -0.593036132642     0.220163471399     1.306911838517    15.994914619560
         N            1.434338976858    -0.909347290001     1.320252164417    14.003074004780
         C           -0.015777030642     2.126052651299    -1.111756266183    12.000000000000
         H            0.755246779358     2.173370202299    -1.874460006083     1.007825032070
         H           -0.843407670942     2.777581637299    -1.379586241683     1.007825032070
         H            0.398809024558     2.407379580699    -0.142579837683     1.007825032070
         C            2.500160928458    -1.354055414401     0.443554102417    12.000000000000
         H            2.157832582458    -2.106041341701    -0.272131272483     1.007825032070
         H            2.939280091158    -0.532862109701    -0.128028633683     1.007825032070
         H            3.282096772758    -1.801864762801     1.052942337117     1.007825032070
         C           -2.197347250942    -0.914432558501    -0.432010270683    12.000000000000
         H           -2.747511967142    -1.040705510001     0.496804026017     1.007825032070
         H           -2.893038916242    -1.028179857401    -1.267366646183     1.007825032070
         H           -1.416592531942    -1.664658293701    -0.500828659983     1.007825032070

  Nuclear repulsion =  491.197428258874254
  Reference energy  = -453.655294666240934

  ==> Basis Set <==

  Basis Set: 6-31+G(D)
    Blend: 6-31+G(D)
    Number of shells: 92
    Number of basis function: 191
    Number of Cartesian functions: 191
    Spherical Harmonics?: false
    Max angular momentum: 2

  ==> CGRSolver (by Rob Parrish) <==

   Number of roots    =         1
   Preconditioning    =    JACOBI
   Convergence cutoff =     1E-06
   Maximum iterations =       100

  ==> CPHFRHamiltonian (by Rob Parrish) <== 

  ==> DiskDFJK: Density-Fitted J/K Matrices <==

    J tasked:                  Yes
    K tasked:                  Yes
    wK tasked:                  No
    OpenMP threads:              1
    Integrals threads:           1
    Memory (MB):               375
    Algorithm:                Core
    Integral Cache:           NONE
    Schwarz Cutoff:          1E-12
    Fitting Condition:       1E-12

   => Auxiliary Basis Set <=

  Basis Set: (6-31+G(D) AUX)
    Blend: HEAVY-AUG-CC-PVDZ-JKFIT
    Number of shells: 342
    Number of basis function: 1159
    Number of Cartesian functions: 1159
    Spherical Harmonics?: false
    Max angular momentum: 3

  ==> CPHF Iterations <==

  => Iterations <=

             Iter  Converged  Remaining    Residual
  CGR           1          0          1   1.795E-01
  CGR           2          0          1   4.983E-02
  CGR           3          0          1   2.723E-02
  CGR           4          0          1   7.933E-03
  CGR           5          0          1   3.462E-03
  CGR           6          0          1   1.018E-03
  CGR           7          0          1   4.772E-04
  CGR           8          0          1   1.852E-04
  CGR           9          0          1   7.001E-05
  CGR          10          0          1   2.525E-05
  CGR          11          0          1   8.382E-06
  CGR          12          0          1   2.653E-06
  CGR          13          0          1   1.014E-06
  CGR          14          1          0   2.987E-07

    CGRSolver converged.

  ==> DFCorrGrad: Density-Fitted Correlated Gradients <==

    OpenMP threads:              1
    Integrals threads:           1
    Memory (MB):               375
    Schwarz Cutoff:          0E+00
    Fitting Condition:       1E-12

   => Auxiliary Basis Set <=

  Basis Set: (6-31+G(D) AUX)
    Blend: HEAVY-AUG-CC-PVDZ-JKFIT
    Number of shells: 342
    Number of basis function: 1159
    Number of Cartesian functions: 1159
    Spherical Harmonics?: false
    Max angular momentum: 3

	-----------------------------------------------------------
	 ==================> DF-MP2 Energies <==================== 
	-----------------------------------------------------------
	 Reference Energy          =    -453.6552946662409340 [Eh]
	 Singles Energy            =      -0.0000000000000000 [Eh]
	 Same-Spin Energy          =      -0.3611580789062596 [Eh]
	 Opposite-Spin Energy      =      -0.9991727189456967 [Eh]
	 Correlation Energy        =      -1.3603307978519563 [Eh]
	 Total Energy              =    -455.0156254640928637 [Eh]
	-----------------------------------------------------------
	 ================> DF-SCS-MP2 Energies <================== 
	-----------------------------------------------------------
	 SCS Same-Spin Scale       =       0.3333333333333333 [-]
	 SCS Opposite-Spin Scale   =       1.2000000000000000 [-]
	 SCS Same-Spin Energy      =      -0.1203860263020865 [Eh]
	 SCS Opposite-Spin Energy  =      -1.1990072627348360 [Eh]
	 SCS Correlation Energy    =      -1.3193932890369227 [Eh]
	 SCS Total Energy          =    -454.9746879552778296 [Eh]
	-----------------------------------------------------------


  -Total Gradient:
     Atom            X                  Y                   Z
    ------   -----------------  -----------------  -----------------
       1        0.005180316398    -0.003653503475     0.004446264354
       2       -0.011058617772     0.008125734786     0.015604713884
       3        0.007983316402     0.002432154141    -0.003133369441
       4        0.002614135701    -0.002499880560     0.000694760656
       5        0.000681882970    -0.008452278207     0.005322333266
       6        0.019756504283    -0.009991396912    -0.013599901803
       7       -0.020916398764     0.013638770035    -0.014111921747
       8       -0.001752557283    -0.002992848075     0.000107970324
       9       -0.001923583975     0.000424952871     0.002269742150
      10        0.002661350336    -0.001412645257     0.000908360575
      11       -0.000998163971    -0.000434987058    -0.002240350413
      12       -0.002012876287     0.000789627184     0.002952808241
      13        0.001162249850     0.002226734290     0.001633866116
      14       -0.001294312722    -0.002552964278     0.001168659159
      15       -0.001661446784     0.001009666974    -0.002419221186
      16       -0.000566427054    -0.001146993774     0.000564066684
      17        0.001724061600     0.000820081380    -0.002881441683
      18        0.002206297844     0.001036267947     0.002543975739
      19       -0.001785730775     0.002633507990     0.000168685124


*** tstop() called on localhost.localdomain at Tue Jan 15 08:52:48 2019
Module time:
	user time   =      56.58 seconds =       0.94 minutes
	system time =       2.00 seconds =       0.03 minutes
	total time  =         58 seconds =       0.97 minutes
Total time:
	user time   =      56.58 seconds =       0.94 minutes
	system time =       2.00 seconds =       0.03 minutes
	total time  =         58 seconds =       0.97 minutes

			-----------------------------------------
			 OPTKING 2.0: for geometry optimizations 
			  - R.A. King,  Bethel University        
			-----------------------------------------

	Internal coordinates to be generated automatically.
	Detected frag 1 with atoms:  1 2 3 4 5 6 7 8 9 10 11 12 13 14 15 16 17 18 19
	---Fragment 1 Bond Connectivity---
	 1 : 2 6 7
	 2 : 1 5
	 3 : 4 5 16
	 4 : 3
	 5 : 2 3 8
	 6 : 1
	 7 : 1 12
	 8 : 5 9 10 11
	 9 : 8
	 10 : 8
	 11 : 8
	 12 : 7 13 14 15
	 13 : 12
	 14 : 12
	 15 : 12
	 16 : 3 17 18 19
	 17 : 16
	 18 : 16
	 19 : 16

	---Fragment 1 Geometry and Gradient---
	 C           0.8449258589       -0.5556617005        1.6282852820
	 O           0.9162465510       -0.2404018868       -1.4042256776
	 C          -3.0899206037        0.8619220299       -0.9067859174
	 H          -4.3766275880        2.4435067843       -0.6952040409
	 N          -0.9250379062        1.4211114849       -1.9524152630
	 O          -1.1206758776        0.4160486654        2.4697054546
	 N           2.7105078480       -1.7184173378        2.4949150171
	 C          -0.0298142671        4.0176572551       -2.1009148696
	 H           1.4272095757        4.1070744677       -3.5422160585
	 H          -1.5938095165        5.2488686062       -2.6070401735
	 H           0.7536398357        4.5492881054       -0.2694368453
	 C           4.7246194429       -2.5587939020        0.8381957787
	 H           4.0777126215       -3.9798413604       -0.5142535772
	 H           5.5544344001       -1.0069634539       -0.2419390548
	 H           6.2022640421       -3.4050309302        1.9897726509
	 C          -4.1523845231       -1.7280271026       -0.8163810982
	 H          -5.1920451647       -1.9666483989        0.9388235509
	 H          -5.4670512435       -1.9429783458       -2.3949758712
	 H          -2.6769719273       -3.1457482799       -0.9464290069
	             0.0051803164       -0.0036535035        0.0044462644
	            -0.0110586178        0.0081257348        0.0156047139
	             0.0079833164        0.0024321541       -0.0031333694
	             0.0026141357       -0.0024998806        0.0006947607
	             0.0006818830       -0.0084522782        0.0053223333
	             0.0197565043       -0.0099913969       -0.0135999018
	            -0.0209163988        0.0136387700       -0.0141119217
	            -0.0017525573       -0.0029928481        0.0001079703
	            -0.0019235840        0.0004249529        0.0022697422
	             0.0026613503       -0.0014126453        0.0009083606
	            -0.0009981640       -0.0004349871       -0.0022403504
	            -0.0020128763        0.0007896272        0.0029528082
	             0.0011622498        0.0022267343        0.0016338661
	            -0.0012943127       -0.0025529643        0.0011686592
	            -0.0016614468        0.0010096670       -0.0024192212
	            -0.0005664271       -0.0011469938        0.0005640667
	             0.0017240616        0.0008200814       -0.0028814417
	             0.0022062978        0.0010362679        0.0025439757
	            -0.0017857308        0.0026335080        0.0001686851

	Previous optimization step data not found.  Starting new optimization.

	---Fragment 1 Intrafragment Coordinates---
	 - Coordinate -           - BOHR/RAD -       - ANG/DEG -
	 R(1,2)           =         3.049688	       1.613825
	 R(1,6)           =         2.348574	       1.242812
	 R(1,7)           =         2.362931	       1.250409
	 R(2,5)           =         2.539974	       1.344096
	 R(3,4)           =         2.049827	       1.084722
	 R(3,5)           =         2.468350	       1.306194
	 R(3,16)          =         2.800864	       1.482153
	 R(5,8)           =         2.750550	       1.455529
	 R(7,12)          =         2.739999	       1.449945
	 R(8,9)           =         2.051405	       1.085557
	 R(8,10)          =         2.053808	       1.086828
	 R(8,11)          =         2.061733	       1.091022
	 R(12,13)         =         2.065668	       1.093104
	 R(12,14)         =         2.064815	       1.092653
	 R(12,15)         =         2.055646	       1.087801
	 R(16,17)         =         2.053918	       1.086886
	 R(16,18)         =         2.065554	       1.093044
	 R(16,19)         =         2.050290	       1.084967
	 B(1,2,5)         =         1.839289	     105.383474
	 B(1,7,12)        =         2.105428	     120.632161
	 B(2,1,6)         =         1.910336	     109.454168
	 B(2,1,7)         =         1.979151	     113.396978
	 B(2,5,3)         =         1.978148	     113.339520
	 B(2,5,8)         =         1.974939	     113.155693
	 B(3,5,8)         =         2.120209	     121.479025
	 B(3,16,17)       =         1.903951	     109.088376
	 B(3,16,18)       =         1.889142	     108.239866
	 B(3,16,19)       =         1.943766	     111.369580
	 B(4,3,5)         =         2.003660	     114.801279
	 B(4,3,16)        =         2.062380	     118.165655
	 B(5,3,16)        =         2.160188	     123.769642
	 B(5,8,9)         =         1.886250	     108.074161
	 B(5,8,10)        =         1.908549	     109.351820
	 B(5,8,11)        =         1.895616	     108.610768
	 B(6,1,7)         =         2.393480	     137.136304
	 B(7,12,13)       =         1.956991	     112.127304
	 B(7,12,14)       =         1.961895	     112.408295
	 B(7,12,15)       =         1.892232	     108.416897
	 B(9,8,10)        =         1.919410	     109.974120
	 B(9,8,11)        =         1.920896	     110.059206
	 B(10,8,11)       =         1.932325	     110.714046
	 B(13,12,14)      =         1.875893	     107.480745
	 B(13,12,15)      =         1.884617	     107.980587
	 B(14,12,15)      =         1.889733	     108.273742
	 B(17,16,18)      =         1.895298	     108.592587
	 B(17,16,19)      =         1.915721	     109.762731
	 B(18,16,19)      =         1.915140	     109.729443
	 D(1,2,5,3)       =        -0.870877	     -49.897600
	 D(1,2,5,8)       =         1.632389	      93.529009
	 D(1,7,12,13)     =        -1.129030	     -64.688654
	 D(1,7,12,14)     =         0.986763	      56.537379
	 D(1,7,12,15)     =         3.075140	     176.192538
	 D(2,1,7,12)      =         0.040642	       2.328632
	 D(2,5,3,4)       =         2.752855	     157.726969
	 D(2,5,3,16)      =        -0.752658	     -43.124129
	 D(2,5,8,9)       =         1.020978	      58.497739
	 D(2,5,8,10)      =         3.110140	     178.197922
	 D(2,5,8,11)      =        -1.062595	     -60.882235
	 D(3,5,8,9)       =        -2.817073	    -161.406379
	 D(3,5,8,10)      =        -0.727910	     -41.706196
	 D(3,5,8,11)      =         1.382539	      79.213648
	 D(4,3,5,8)       =         0.308874	      17.697202
	 D(4,3,16,17)     =        -0.970418	     -55.600879
	 D(4,3,16,18)     =         1.088854	      62.386724
	 D(4,3,16,19)     =        -3.087620	    -176.907605
	 D(5,2,1,6)       =         0.213987	      12.260560
	 D(5,2,1,7)       =        -2.946161	    -168.802618
	 D(5,3,16,17)     =         2.546431	     145.899743
	 D(5,3,16,18)     =        -1.677482	     -96.112654
	 D(5,3,16,19)     =         0.429229	      24.593017
	 D(6,1,7,12)      =        -3.126672	    -179.145124
	 D(8,5,3,16)      =         3.086547	     176.846104
	 R(1,16)          =         5.685415	       3.008592
	 R(3,6)           =         3.934135	       2.081855
	 R(6,8)           =         5.920484	       3.132985
	 R(6,16)          =         4.958496	       2.623923

	Current energy   :      -455.0156254641

	Generating empirical Hessian (Schlegel '84) for each fragment.
	Taking PRFO optimization step.
	Maximizing along 1 lowest eigenvalue of Hessian.

 RFO min eigenvalues
 -0.004358 -0.000000 -0.000000 -0.000000 -0.000000 -0.000000 -0.000000 -0.000000
 -0.000000 -0.000000 -0.000000 -0.000000 -0.000000 -0.000000 -0.000000  0.000000
  0.000000  0.000000  0.000000  0.000000  0.000000  0.000000  0.000000  0.000000
  0.000000  0.004215  0.004953  0.006265  0.007306  0.015717  0.018254  0.020389
  0.024513  0.027938  0.031350  0.060901  0.072989  0.074225  0.075798  0.076827
  0.084710  0.095129  0.099530  0.152940  0.160000  0.160000  0.160000  0.160000
  0.160000  0.160000  0.160000  0.160000  0.160037  0.202374  0.213685  0.230324
  0.242387  0.249983  0.250005  0.315738  0.344578  0.344672  0.345107  0.346966
  0.350703  0.351771  0.351856  0.353336  0.354034  0.354338  0.357697  0.382594
  0.545923  0.626787  0.831960  0.848882

 RFO max eigenvalues
 -0.000000  0.000000
	|RFO target step|  :        0.1405396238
	RFO gradient       :       -0.0310108711
	RFO hessian        :        0.2163277520
	Projected Delta(E) :       -0.0021788347

	Back-transformation to cartesian coordinates...
	Could not converge backtransformation.
	Using first guess instead.

	--- Internal Coordinate Step in ANG or DEG, aJ/ANG or AJ/DEG ---
	 ---------------------------------------------------------------------------
	   Coordinate                Previous        Force       Change         New 
	   ----------                --------       ------       ------       ------
	    1 R(1,2)          =      1.613825     0.121094     0.036589     1.650415
	    2 R(1,6)          =      1.242812     0.203615     0.015871     1.258682
	    3 R(1,7)          =      1.250409     0.254639     0.019603     1.270012
	    4 R(2,5)          =      1.344096     0.096502     0.011920     1.356016
	    5 R(3,4)          =      1.084722     0.028819     0.005372     1.090094
	    6 R(3,5)          =      1.306194     0.082169     0.009585     1.315779
	    7 R(3,16)         =      1.482153     0.007432     0.005038     1.487191
	    8 R(5,8)          =      1.455529     0.013518     0.005605     1.461133
	    9 R(7,12)         =      1.449945     0.043392     0.007207     1.457152
	   10 R(8,9)          =      1.085557     0.024242     0.004541     1.090097
	   11 R(8,10)         =      1.086828     0.025518     0.004709     1.091538
	   12 R(8,11)         =      1.091022     0.020445     0.003884     1.094907
	   13 R(12,13)        =      1.093104     0.024432     0.004524     1.097629
	   14 R(12,14)        =      1.092653     0.025129     0.004746     1.097399
	   15 R(12,15)        =      1.087801     0.024429     0.004530     1.092331
	   16 R(16,17)        =      1.086886     0.028262     0.005120     1.092007
	   17 R(16,18)        =      1.093044     0.028476     0.005374     1.098418
	   18 R(16,19)        =      1.084967     0.025678     0.004663     1.089629
	   19 B(1,2,5)        =    105.383474    -0.000450    -0.861765   104.521709
	   20 B(1,7,12)       =    120.632161     0.000086     0.250080   120.882242
	   21 B(2,1,6)        =    109.454168     0.000049     0.202661   109.656829
	   22 B(2,1,7)        =    113.396978    -0.000038    -0.135891   113.261087
	   23 B(2,5,3)        =    113.339520    -0.000038     0.098207   113.437726
	   24 B(2,5,8)        =    113.155693     0.000057     0.139709   113.295402
	   25 B(3,5,8)        =    121.479025    -0.000032     0.385900   121.864925
	   26 B(3,16,17)      =    109.088376     0.000024     0.101947   109.190323
	   27 B(3,16,18)      =    108.239866     0.000059     0.286134   108.526000
	   28 B(3,16,19)      =    111.369580     0.000052     0.225107   111.594687
	   29 B(4,3,5)        =    114.801279     0.000051    -0.117356   114.683923
	   30 B(4,3,16)       =    118.165655     0.000105    -0.130792   118.034862
	   31 B(5,3,16)       =    123.769642    -0.000138    -0.079732   123.689911
	   32 B(5,8,9)        =    108.074161    -0.000060    -0.303545   107.770616
	   33 B(5,8,10)       =    109.351820    -0.000050    -0.238127   109.113693
	   34 B(5,8,11)       =    108.610768     0.000004     0.049129   108.659897
	   35 B(6,1,7)        =    137.136304    -0.000009    -0.057442   137.078862
	   36 B(7,12,13)      =    112.127304    -0.000003     0.027088   112.154392
	   37 B(7,12,14)      =    112.408295    -0.000004     0.008312   112.416607
	   38 B(7,12,15)      =    108.416897    -0.000109    -0.564199   107.852698
	   39 B(9,8,10)       =    109.974120     0.000035     0.088704   110.062824
	   40 B(9,8,11)       =    110.059206     0.000032     0.163108   110.222314
	   41 B(10,8,11)      =    110.714046     0.000036     0.221992   110.936038
	   42 B(13,12,14)     =    107.480745     0.000055     0.365131   107.845877
	   43 B(13,12,15)     =    107.980587     0.000036     0.116227   108.096814
	   44 B(14,12,15)     =    108.273742     0.000029     0.056164   108.329907
	   45 B(17,16,18)     =    108.592587    -0.000033    -0.129610   108.462977
	   46 B(17,16,19)     =    109.762731    -0.000046    -0.232730   109.530001
	   47 B(18,16,19)     =    109.729443    -0.000056    -0.253091   109.476353
	   48 D(1,2,5,3)      =    -49.897600    -0.000007    -0.089807   -49.987407
	   49 D(1,2,5,8)      =     93.529009    -0.000014     0.885983    94.414991
	   50 D(1,7,12,13)    =    -64.688654    -0.000006     0.036462   -64.652192
	   51 D(1,7,12,14)    =     56.537379     0.000009     0.538786    57.076166
	   52 D(1,7,12,15)    =    176.192538    -0.000000     0.241650   176.434188
	   53 D(2,1,7,12)     =      2.328632    -0.000012    -0.060932     2.267700
	   54 D(2,5,3,4)      =    157.726969     0.000035     2.232336   159.959305
	   55 D(2,5,3,16)     =    -43.124129     0.000054     1.222349   -41.901780
	   56 D(2,5,8,9)      =     58.497739     0.000006    -0.127057    58.370681
	   57 D(2,5,8,10)     =    178.197922     0.000001    -0.333678   177.864243
	   58 D(2,5,8,11)     =    -60.882235     0.000005    -0.176771   -61.059006
	   59 D(3,5,8,9)      =   -161.406379    -0.000001     0.813181  -160.593198
	   60 D(3,5,8,10)     =    -41.706196    -0.000006     0.606560   -41.099636
	   61 D(3,5,8,11)     =     79.213648    -0.000002     0.763467    79.977114
	   62 D(4,3,5,8)      =     17.697202     0.000034     1.275757    18.972958
	   63 D(4,3,16,17)    =    -55.600879     0.000007    -0.525757   -56.126637
	   64 D(4,3,16,18)    =     62.386724     0.000009    -0.460739    61.925985
	   65 D(4,3,16,19)    =   -176.907605     0.000009    -0.447680  -177.355286
	   66 D(5,2,1,6)      =     12.260560    -0.000039    -0.546875    11.713685
	   67 D(5,2,1,7)      =   -168.802618    -0.000016    -0.022802  -168.825420
	   68 D(5,3,16,17)    =    145.899743    -0.000009     0.512512   146.412255
	   69 D(5,3,16,18)    =    -96.112654    -0.000008     0.577530   -95.535124
	   70 D(5,3,16,19)    =     24.593017    -0.000007     0.590589    25.183606
	   71 D(6,1,7,12)     =   -179.145124     0.000019     0.667300  -178.477824
	   72 D(8,5,3,16)     =    176.846104     0.000053     0.265770   177.111874
	   73 R(1,16)         =      3.008592     0.018781     0.000805     3.009397
	   74 R(3,6)          =      2.081855    -0.011472     0.018909     2.100763
	   75 R(6,8)          =      3.132985     0.039481     0.034197     3.167183
	   76 R(6,16)         =      2.623923     0.021756     0.010091     2.634014
	 ---------------------------------------------------------------------------
	Successfully symmetrized geometry.

  ==> Convergence Check <==

  Measures of convergence in internal coordinates in au.
  Criteria marked as inactive (o), active & met (*), and active & unmet ( ).
  --------------------------------------------------------------------------------------------- ~
   Step     Total Energy     Delta E     MAX Force     RMS Force      MAX Disp      RMS Disp    ~
  --------------------------------------------------------------------------------------------- ~
    Convergence Criteria    1.00e-06 *    3.00e-04 *             o    1.20e-03 *             o  ~
  --------------------------------------------------------------------------------------------- ~
      1    -455.01562546   -4.55e+02      3.09e-02      5.47e-03 o    6.91e-02      1.61e-02 o  ~
  ---------------------------------------------------------------------------------------------

	Writing optimization data to binary file.
	Structure for next step:
	Cartesian Geometry (in Angstrom)
	    C     0.4452479687  -0.3016591791   0.8691206164
	    O     0.4876254868  -0.1196312118  -0.7706779646
	    C    -1.6484091102   0.4649246151  -0.4790317462
	    H    -2.3445435866   1.2982312343  -0.3825867641
	    N    -0.4981745189   0.7718621251  -1.0394107621
	    O    -0.6019051893   0.2258951547   1.3267648409
	    N     1.4470641586  -0.9317434032   1.3298699293
	    C    -0.0234111690   2.1513314129  -1.1204959939
	    H     0.7366948453   2.1962784520  -1.9005799067
	    H    -0.8609298143   2.8031474449  -1.3757458777
	    H     0.4091027659   2.4303340467  -0.1541059255
	    C     2.5200773844  -1.3765696712   0.4500599528
	    H     2.1773011039  -2.1266325391  -0.2743011690
	    H     2.9713771719  -0.5485926334  -0.1112487914
	    H     3.2943795183  -1.8332100959   1.0706430895
	    C    -2.1993989868  -0.9155312400  -0.4291368525
	    H    -2.7571165695  -1.0460260076   0.5005947367
	    H    -2.8922146265  -1.0454417736  -1.2715450364
	    H    -1.4103769847  -1.6646476312  -0.4888127390
			--------------------------
			 OPTKING Finished Execution 
			--------------------------

    Structure for next step:
    Molecular point group: c1
    Full point group: C1

    Geometry (in Angstrom), charge = 0, multiplicity = 1:

    C            0.445961927561    -0.303180399042     0.868920324147
    O            0.488339445581    -0.121152431775    -0.770878256857
    C           -1.647695151422     0.463403395129    -0.479232038405
    H           -2.343829627805     1.296710014330    -0.382787056303
    N           -0.497460560043     0.770340905129    -1.039611054286
    O           -0.601191230465     0.224373934776     1.326564548705
    N            1.447778117411    -0.933264623146     1.329669637122
    C           -0.022697210154     2.149810192900    -1.120696286140
    H            0.737408804074     2.194757232048    -1.900780198929
    H           -0.860215855494     2.801626224929    -1.375946169897
    H            0.409816724688     2.428812826772    -0.154306217699
    C            2.520791343206    -1.378090891140     0.449859660627
    H            2.178015062698    -2.128153759027    -0.274501461187
    H            2.972091130672    -0.550113853325    -0.111449083638
    H            3.295093477099    -1.834731315802     1.070442797275
    C           -2.198685027949    -0.917052459957    -0.429337144698
    H           -2.756402610693    -1.047547227547     0.500394444523
    H           -2.891500667715    -1.046962993533    -1.271745328638
    H           -1.409663025890    -1.666168851198    -0.489013031171

gradient() will perform analytic gradient computation.

*** tstart() called on localhost.localdomain
*** at Tue Jan 15 08:52:48 2019

    SCF Algorithm Type (re)set to DF.

*** tstart() called on localhost.localdomain
*** at Tue Jan 15 08:52:48 2019

   => Loading Basis Set <=

    Name: 6-31+G(D)
    Role: ORBITAL
    Keyword: BASIS
    atoms 1, 3, 8, 12, 16       entry C          line   119 file /root/psi4conda/share/psi4/basis/6-31pg_d_.gbs 
    atoms 2, 6                  entry O          line   157 file /root/psi4conda/share/psi4/basis/6-31pg_d_.gbs 
    atoms 4, 9-11, 13-15, 17-19 entry H          line    46 file /root/psi4conda/share/psi4/basis/6-31pg_d_.gbs 
    atoms 5, 7                  entry N          line   138 file /root/psi4conda/share/psi4/basis/6-31pg_d_.gbs 


         ---------------------------------------------------------
                                   SCF
            by Justin Turney, Rob Parrish, Andy Simmonett
                             and Daniel Smith
                              RHF Reference
                        1 Threads,    500 MiB Core
         ---------------------------------------------------------

  ==> Geometry <==

    Molecular point group: c1
    Full point group: C1

    Geometry (in Angstrom), charge = 0, multiplicity = 1:

       Center              X                  Y                   Z               Mass       
    ------------   -----------------  -----------------  -----------------  -----------------
         C            0.445961927561    -0.303180399042     0.868920324147    12.000000000000
         O            0.488339445581    -0.121152431775    -0.770878256857    15.994914619560
         C           -1.647695151422     0.463403395129    -0.479232038405    12.000000000000
         H           -2.343829627805     1.296710014330    -0.382787056303     1.007825032070
         N           -0.497460560043     0.770340905129    -1.039611054286    14.003074004780
         O           -0.601191230465     0.224373934776     1.326564548705    15.994914619560
         N            1.447778117411    -0.933264623146     1.329669637122    14.003074004780
         C           -0.022697210154     2.149810192900    -1.120696286140    12.000000000000
         H            0.737408804074     2.194757232048    -1.900780198929     1.007825032070
         H           -0.860215855494     2.801626224929    -1.375946169897     1.007825032070
         H            0.409816724688     2.428812826772    -0.154306217699     1.007825032070
         C            2.520791343206    -1.378090891140     0.449859660627    12.000000000000
         H            2.178015062698    -2.128153759027    -0.274501461187     1.007825032070
         H            2.972091130672    -0.550113853325    -0.111449083638     1.007825032070
         H            3.295093477099    -1.834731315802     1.070442797275     1.007825032070
         C           -2.198685027949    -0.917052459957    -0.429337144698    12.000000000000
         H           -2.756402610693    -1.047547227547     0.500394444523     1.007825032070
         H           -2.891500667715    -1.046962993533    -1.271745328638     1.007825032070
         H           -1.409663025890    -1.666168851198    -0.489013031171     1.007825032070

  Running in c1 symmetry.

  Rotational constants: A =      0.08334  B =      0.04358  C =      0.03630 [cm^-1]
  Rotational constants: A =   2498.34652  B =   1306.58261  C =   1088.13620 [MHz]
  Nuclear repulsion =  486.680698854565492

  Charge       = 0
  Multiplicity = 1
  Electrons    = 70
  Nalpha       = 35
  Nbeta        = 35

  ==> Algorithm <==

  SCF Algorithm Type is DF.
  DIIS enabled.
  MOM disabled.
  Fractional occupation disabled.
  Guess Type is READ.
  Energy threshold   = 1.00e-10
  Density threshold  = 1.00e-10
  Integral threshold = 0.00e+00

  ==> Primary Basis <==

  Basis Set: 6-31+G(D)
    Blend: 6-31+G(D)
    Number of shells: 92
    Number of basis function: 191
    Number of Cartesian functions: 191
    Spherical Harmonics?: false
    Max angular momentum: 2

   => Loading Basis Set <=

    Name: (6-31+G(D) AUX)
    Role: JKFIT
    Keyword: DF_BASIS_SCF
    atoms 1, 3, 8, 12, 16       entry C          line   194 file /root/psi4conda/share/psi4/basis/heavy-aug-cc-pvdz-jkfit.gbs 
    atoms 2, 6                  entry O          line   310 file /root/psi4conda/share/psi4/basis/heavy-aug-cc-pvdz-jkfit.gbs 
    atoms 4, 9-11, 13-15, 17-19 entry H          line   116 file /root/psi4conda/share/psi4/basis/heavy-aug-cc-pvdz-jkfit.gbs 
    atoms 5, 7                  entry N          line   252 file /root/psi4conda/share/psi4/basis/heavy-aug-cc-pvdz-jkfit.gbs 

  Reading orbitals from file 180, no projection.

  ==> Pre-Iterations <==

   -------------------------------------------------------
    Irrep   Nso     Nmo     Nalpha   Nbeta   Ndocc  Nsocc
   -------------------------------------------------------
     A        191     191       0       0       0       0
   -------------------------------------------------------
    Total     191     191      35      35      35       0
   -------------------------------------------------------

  ==> Integral Setup <==

  ==> DiskDFJK: Density-Fitted J/K Matrices <==

    J tasked:                  Yes
    K tasked:                  Yes
    wK tasked:                  No
    OpenMP threads:              1
    Integrals threads:           1
    Memory (MB):               375
    Algorithm:                Core
    Integral Cache:           NONE
    Schwarz Cutoff:          1E-12
    Fitting Condition:       1E-12

   => Auxiliary Basis Set <=

  Basis Set: (6-31+G(D) AUX)
    Blend: HEAVY-AUG-CC-PVDZ-JKFIT
    Number of shells: 342
    Number of basis function: 1159
    Number of Cartesian functions: 1159
    Spherical Harmonics?: false
    Max angular momentum: 3

  Minimum eigenvalue in the overlap matrix is 5.2238942326E-05.
  Using Symmetric Orthogonalization.

  SCF Guess: Orbitals guess was supplied from a previous computation.

  ==> Iterations <==

                           Total Energy        Delta E     RMS |[F,P]|

   @DF-RHF iter   0:  -453.57609835539722   -4.53576e+02   6.11540e-04 
   @DF-RHF iter   1:  -453.65004091153884   -7.39426e-02   1.11619e-04 
   @DF-RHF iter   2:  -453.65023479184845   -1.93880e-04   6.79576e-05 DIIS
   @DF-RHF iter   3:  -453.65030654628936   -7.17544e-05   1.49568e-05 DIIS
   @DF-RHF iter   4:  -453.65031619075330   -9.64446e-06   7.46728e-06 DIIS
   @DF-RHF iter   5:  -453.65031806923253   -1.87848e-06   2.58981e-06 DIIS
   @DF-RHF iter   6:  -453.65031848280148   -4.13569e-07   1.25959e-06 DIIS
   @DF-RHF iter   7:  -453.65031856274044   -7.99390e-08   4.33855e-07 DIIS
   @DF-RHF iter   8:  -453.65031857542328   -1.26828e-08   1.57667e-07 DIIS
   @DF-RHF iter   9:  -453.65031857692134   -1.49805e-09   7.56061e-08 DIIS
   @DF-RHF iter  10:  -453.65031857721851   -2.97177e-10   2.34563e-08 DIIS
   @DF-RHF iter  11:  -453.65031857724870   -3.01839e-11   9.18447e-09 DIIS
   @DF-RHF iter  12:  -453.65031857725563   -6.93490e-12   3.02718e-09 DIIS
   @DF-RHF iter  13:  -453.65031857725671   -1.08002e-12   1.30614e-09 DIIS
   @DF-RHF iter  14:  -453.65031857725569    1.02318e-12   4.86231e-10 DIIS
   @DF-RHF iter  15:  -453.65031857725342    2.27374e-12   1.73799e-10 DIIS
   @DF-RHF iter  16:  -453.65031857725717   -3.75167e-12   5.54763e-11 DIIS

  ==> Post-Iterations <==

    Orbital Energies [Eh]
    ---------------------

    Doubly Occupied:                                                      

       1A    -20.619174     2A    -20.546893     3A    -15.697211  
       4A    -15.520020     5A    -11.387190     6A    -11.372571  
       7A    -11.296221     8A    -11.266030     9A    -11.228431  
      10A     -1.480526    11A     -1.356820    12A     -1.224169  
      13A     -1.167909    14A     -1.075574    15A     -0.974513  
      16A     -0.915642    17A     -0.841074    18A     -0.759967  
      19A     -0.726029    20A     -0.702892    21A     -0.678060  
      22A     -0.631719    23A     -0.621848    24A     -0.613597  
      25A     -0.591562    26A     -0.587088    27A     -0.578486  
      28A     -0.567455    29A     -0.537868    30A     -0.530151  
      31A     -0.502563    32A     -0.459979    33A     -0.439887  
      34A     -0.367985    35A     -0.341757  

    Virtual:                                                              

      36A      0.050674    37A      0.070343    38A      0.075925  
      39A      0.080960    40A      0.098364    41A      0.101716  
      42A      0.110834    43A      0.116296    44A      0.118331  
      45A      0.126150    46A      0.136861    47A      0.146077  
      48A      0.159003    49A      0.165557    50A      0.169671  
      51A      0.178240    52A      0.191069    53A      0.208951  
      54A      0.215099    55A      0.221346    56A      0.226534  
      57A      0.241001    58A      0.247893    59A      0.281266  
      60A      0.305730    61A      0.312528    62A      0.317333  
      63A      0.320768    64A      0.336771    65A      0.341164  
      66A      0.346860    67A      0.353291    68A      0.365417  
      69A      0.373944    70A      0.394519    71A      0.401247  
      72A      0.404679    73A      0.409365    74A      0.417588  
      75A      0.419763    76A      0.429237    77A      0.439266  
      78A      0.452119    79A      0.455002    80A      0.464572  
      81A      0.483301    82A      0.490886    83A      0.508253  
      84A      0.521509    85A      0.524577    86A      0.537652  
      87A      0.571967    88A      0.600143    89A      0.605346  
      90A      0.681273    91A      0.779929    92A      0.835715  
      93A      0.862812    94A      0.905040    95A      0.920125  
      96A      0.935491    97A      0.951765    98A      0.958675  
      99A      0.967967   100A      0.984495   101A      0.998372  
     102A      1.025511   103A      1.031170   104A      1.103396  
     105A      1.115725   106A      1.152325   107A      1.166124  
     108A      1.187247   109A      1.199425   110A      1.210647  
     111A      1.225160   112A      1.257407   113A      1.262071  
     114A      1.275915   115A      1.284114   116A      1.317426  
     117A      1.327943   118A      1.349669   119A      1.366747  
     120A      1.379245   121A      1.391126   122A      1.412893  
     123A      1.439510   124A      1.450583   125A      1.477964  
     126A      1.521345   127A      1.537381   128A      1.591376  
     129A      1.599448   130A      1.660681   131A      1.677829  
     132A      1.692223   133A      1.708435   134A      1.749497  
     135A      1.752838   136A      1.785761   137A      1.809490  
     138A      1.824273   139A      1.880434   140A      1.892918  
     141A      1.924327   142A      1.971358   143A      2.015374  
     144A      2.037957   145A      2.074873   146A      2.124677  
     147A      2.160148   148A      2.197515   149A      2.215722  
     150A      2.254158   151A      2.300128   152A      2.310347  
     153A      2.324877   154A      2.369346   155A      2.435538  
     156A      2.461956   157A      2.464927   158A      2.485411  
     159A      2.524219   160A      2.539610   161A      2.555642  
     162A      2.567542   163A      2.596280   164A      2.601445  
     165A      2.656411   166A      2.684562   167A      2.713574  
     168A      2.752245   169A      2.792237   170A      2.832596  
     171A      2.951661   172A      2.979059   173A      3.041610  
     174A      3.064081   175A      3.112631   176A      3.140721  
     177A      3.196008   178A      3.278407   179A      3.373274  
     180A      3.421961   181A      3.468466   182A      3.650434  
     183A      4.574409   184A      4.673725   185A      4.688950  
     186A      4.784573   187A      4.794595   188A      4.858727  
     189A      4.917714   190A      4.950932   191A      5.136280  

    Final Occupation by Irrep:
              A 
    DOCC [    35 ]

  Energy converged.

  @DF-RHF Final Energy:  -453.65031857725717

   => Energetics <=

    Nuclear Repulsion Energy =            486.6806988545654917
    One-Electron Energy =               -1584.2443121834000976
    Two-Electron Energy =                 643.9132947515774958
    Total Energy =                       -453.6503185772571669



Properties will be evaluated at   0.000000,   0.000000,   0.000000 [a0]

Properties computed using the SCF density matrix

  Nuclear Dipole Moment: [e a0]
     X:    -0.6306      Y:     0.4212      Z:    -4.1134

  Electronic Dipole Moment: [e a0]
     X:    -0.9931      Y:     0.6877      Z:     2.1311

  Dipole Moment: [e a0]
     X:    -1.6238      Y:     1.1089      Z:    -1.9823     Total:     2.7921

  Dipole Moment: [D]
     X:    -4.1272      Y:     2.8186      Z:    -5.0385     Total:     7.0968


*** tstop() called on localhost.localdomain at Tue Jan 15 08:53:02 2019
Module time:
	user time   =      13.22 seconds =       0.22 minutes
	system time =       0.36 seconds =       0.01 minutes
	total time  =         14 seconds =       0.23 minutes
Total time:
	user time   =      69.86 seconds =       1.16 minutes
	system time =       2.37 seconds =       0.04 minutes
	total time  =         72 seconds =       1.20 minutes

  //>>>>>>>>>>>>>>>>>>>>>>>>>>>>>>>>>>>//
  //               DFMP2               //
  //<<<<<<<<<<<<<<<<<<<<<<<<<<<<<<<<<<<//

   => Loading Basis Set <=

    Name: (6-31+G(D) AUX)
    Role: RIFIT
    Keyword: DF_BASIS_MP2
    atoms 1, 3, 8, 12, 16       entry C          line   116 file /root/psi4conda/share/psi4/basis/heavy-aug-cc-pvdz-ri.gbs 
    atoms 2, 6                  entry O          line   208 file /root/psi4conda/share/psi4/basis/heavy-aug-cc-pvdz-ri.gbs 
    atoms 4, 9-11, 13-15, 17-19 entry H          line    44 file /root/psi4conda/share/psi4/basis/heavy-aug-cc-pvdz-ri.gbs 
    atoms 5, 7                  entry N          line   162 file /root/psi4conda/share/psi4/basis/heavy-aug-cc-pvdz-ri.gbs 

	 --------------------------------------------------------
	                          DF-MP2                         
	      2nd-Order Density-Fitted Moller-Plesset Theory     
	              RMP2 Wavefunction,   1 Threads             
	                                                         
	        Rob Parrish, Justin Turney, Andy Simmonett,      
	           Ed Hohenstein, and C. David Sherrill          
	 --------------------------------------------------------

   => Auxiliary Basis Set <=

  Basis Set: (6-31+G(D) AUX)
    Blend: HEAVY-AUG-CC-PVDZ-RI
    Number of shells: 258
    Number of basis function: 788
    Number of Cartesian functions: 924
    Spherical Harmonics?: true
    Max angular momentum: 3

	 --------------------------------------------------------
	                 NBF =   191, NAUX =   788
	 --------------------------------------------------------
	   CLASS    FOCC     OCC    AOCC    AVIR     VIR    FVIR
	   PAIRS       9      35      26     156     156       0
	 --------------------------------------------------------


         ------------------------------------------------------------
                                     CPHF                           
                                  Rob Parrish                       
         ------------------------------------------------------------

  ==> Geometry <==

    Molecular point group: c1
    Full point group: C1

    Geometry (in Angstrom), charge = 0, multiplicity = 1:

       Center              X                  Y                   Z               Mass       
    ------------   -----------------  -----------------  -----------------  -----------------
         C            0.445961927561    -0.303180399042     0.868920324147    12.000000000000
         O            0.488339445581    -0.121152431775    -0.770878256857    15.994914619560
         C           -1.647695151422     0.463403395129    -0.479232038405    12.000000000000
         H           -2.343829627805     1.296710014330    -0.382787056303     1.007825032070
         N           -0.497460560043     0.770340905129    -1.039611054286    14.003074004780
         O           -0.601191230465     0.224373934776     1.326564548705    15.994914619560
         N            1.447778117411    -0.933264623146     1.329669637122    14.003074004780
         C           -0.022697210154     2.149810192900    -1.120696286140    12.000000000000
         H            0.737408804074     2.194757232048    -1.900780198929     1.007825032070
         H           -0.860215855494     2.801626224929    -1.375946169897     1.007825032070
         H            0.409816724688     2.428812826772    -0.154306217699     1.007825032070
         C            2.520791343206    -1.378090891140     0.449859660627    12.000000000000
         H            2.178015062698    -2.128153759027    -0.274501461187     1.007825032070
         H            2.972091130672    -0.550113853325    -0.111449083638     1.007825032070
         H            3.295093477099    -1.834731315802     1.070442797275     1.007825032070
         C           -2.198685027949    -0.917052459957    -0.429337144698    12.000000000000
         H           -2.756402610693    -1.047547227547     0.500394444523     1.007825032070
         H           -2.891500667715    -1.046962993533    -1.271745328638     1.007825032070
         H           -1.409663025890    -1.666168851198    -0.489013031171     1.007825032070

  Nuclear repulsion =  486.680698854565492
  Reference energy  = -453.650318577257167

  ==> Basis Set <==

  Basis Set: 6-31+G(D)
    Blend: 6-31+G(D)
    Number of shells: 92
    Number of basis function: 191
    Number of Cartesian functions: 191
    Spherical Harmonics?: false
    Max angular momentum: 2

  ==> CGRSolver (by Rob Parrish) <==

   Number of roots    =         1
   Preconditioning    =    JACOBI
   Convergence cutoff =     1E-06
   Maximum iterations =       100

  ==> CPHFRHamiltonian (by Rob Parrish) <== 

  ==> DiskDFJK: Density-Fitted J/K Matrices <==

    J tasked:                  Yes
    K tasked:                  Yes
    wK tasked:                  No
    OpenMP threads:              1
    Integrals threads:           1
    Memory (MB):               375
    Algorithm:                Core
    Integral Cache:           NONE
    Schwarz Cutoff:          1E-12
    Fitting Condition:       1E-12

   => Auxiliary Basis Set <=

  Basis Set: (6-31+G(D) AUX)
    Blend: HEAVY-AUG-CC-PVDZ-JKFIT
    Number of shells: 342
    Number of basis function: 1159
    Number of Cartesian functions: 1159
    Spherical Harmonics?: false
    Max angular momentum: 3

  ==> CPHF Iterations <==

  => Iterations <=

             Iter  Converged  Remaining    Residual
  CGR           1          0          1   1.832E-01
  CGR           2          0          1   5.127E-02
  CGR           3          0          1   2.812E-02
  CGR           4          0          1   8.547E-03
  CGR           5          0          1   3.731E-03
  CGR           6          0          1   1.113E-03
  CGR           7          0          1   5.103E-04
  CGR           8          0          1   2.066E-04
  CGR           9          0          1   8.045E-05
  CGR          10          0          1   3.037E-05
  CGR          11          0          1   1.018E-05
  CGR          12          0          1   3.521E-06
  CGR          13          0          1   1.327E-06
  CGR          14          1          0   3.754E-07

    CGRSolver converged.

  ==> DFCorrGrad: Density-Fitted Correlated Gradients <==

    OpenMP threads:              1
    Integrals threads:           1
    Memory (MB):               375
    Schwarz Cutoff:          0E+00
    Fitting Condition:       1E-12

   => Auxiliary Basis Set <=

  Basis Set: (6-31+G(D) AUX)
    Blend: HEAVY-AUG-CC-PVDZ-JKFIT
    Number of shells: 342
    Number of basis function: 1159
    Number of Cartesian functions: 1159
    Spherical Harmonics?: false
    Max angular momentum: 3

	-----------------------------------------------------------
	 ==================> DF-MP2 Energies <==================== 
	-----------------------------------------------------------
	 Reference Energy          =    -453.6503185772571669 [Eh]
	 Singles Energy            =      -0.0000000000000000 [Eh]
	 Same-Spin Energy          =      -0.3627253538758260 [Eh]
	 Opposite-Spin Energy      =      -1.0050486757587400 [Eh]
	 Correlation Energy        =      -1.3677740296345660 [Eh]
	 Total Energy              =    -455.0180926068917415 [Eh]
	-----------------------------------------------------------
	 ================> DF-SCS-MP2 Energies <================== 
	-----------------------------------------------------------
	 SCS Same-Spin Scale       =       0.3333333333333333 [-]
	 SCS Opposite-Spin Scale   =       1.2000000000000000 [-]
	 SCS Same-Spin Energy      =      -0.1209084512919420 [Eh]
	 SCS Opposite-Spin Energy  =      -1.2060584109104879 [Eh]
	 SCS Correlation Energy    =      -1.3269668622024300 [Eh]
	 SCS Total Energy          =    -454.9772854394595925 [Eh]
	-----------------------------------------------------------


  -Total Gradient:
     Atom            X                  Y                   Z
    ------   -----------------  -----------------  -----------------
       1        0.000601398027    -0.000644196428    -0.010862118024
       2       -0.001919031411     0.000714518579     0.009624373261
       3        0.001127801179    -0.000043021776     0.003977739697
       4       -0.000473343622    -0.000011870908    -0.000089788784
       5        0.002988053462    -0.000331626518    -0.002917341099
       6       -0.002815455496     0.001367215247    -0.001113294270
       7        0.000683644605     0.000078332981    -0.001409512306
       8       -0.001017733120    -0.001523747068     0.000765169803
       9        0.000259654930     0.000258852954    -0.000165598296
      10        0.000046893756     0.000324324951    -0.000105912632
      11        0.000227092506     0.000464746522     0.000298000427
      12       -0.000715704145     0.000164657501     0.002537013315
      13        0.000199589002    -0.000310483938    -0.000324015631
      14        0.000471531036     0.000020666597    -0.000374939441
      15        0.000489768385    -0.000212814804    -0.000277898740
      16       -0.000112284318    -0.000068664759     0.000486330685
      17       -0.000099348772    -0.000085474139     0.000007459742
      18       -0.000103307291    -0.000026933766    -0.000060956809
      19        0.000160781292    -0.000134481226     0.000005289105


*** tstop() called on localhost.localdomain at Tue Jan 15 08:53:45 2019
Module time:
	user time   =      54.83 seconds =       0.91 minutes
	system time =       1.93 seconds =       0.03 minutes
	total time  =         57 seconds =       0.95 minutes
Total time:
	user time   =     111.47 seconds =       1.86 minutes
	system time =       3.94 seconds =       0.07 minutes
	total time  =        115 seconds =       1.92 minutes

			-----------------------------------------
			 OPTKING 2.0: for geometry optimizations 
			  - R.A. King,  Bethel University        
			-----------------------------------------

	Previous internal coordinate definitions found.
	---Fragment 1 Geometry and Gradient---
	 C           0.8427459088       -0.5729279230        1.6420214439
	 O           0.9228278120       -0.2289449164       -1.4567487873
	 C          -3.1136925867        0.8757055058       -0.9056173067
	 H          -4.4291960987        2.4504268009       -0.7233627036
	 N          -0.9400642204        1.4557333397       -1.9645801773
	 O          -1.1360867791        0.4240052881        2.5068436946
	 N           2.7359041431       -1.7636145473        2.5127114614
	 C          -0.0428915112        4.0625525023       -2.1178090589
	 H           1.3935006877        4.1474900967       -3.5919540148
	 H          -1.6255723820        5.2943062918       -2.6001614347
	 H           0.7744413743        4.5897910706       -0.2915964921
	 C           4.7636052768       -2.6042143705        0.8501115568
	 H           4.1158519818       -4.0216277732       -0.5187325847
	 H           5.6164382789       -1.0395645247       -0.2106082458
	 H           6.2268242540       -3.4671397143        2.0228437278
	 C          -4.1549125553       -1.7329779988       -0.8113296222
	 H          -5.2088460462       -1.9795773713        0.9456084586
	 H          -5.4641443750       -1.9784733290       -2.4032503819
	 H          -2.6638770586       -3.1486028199       -0.9241007043
	             0.0006013980       -0.0006441964       -0.0108621180
	            -0.0019190314        0.0007145186        0.0096243733
	             0.0011278012       -0.0000430218        0.0039777397
	            -0.0004733436       -0.0000118709       -0.0000897888
	             0.0029880535       -0.0003316265       -0.0029173411
	            -0.0028154555        0.0013672152       -0.0011132943
	             0.0006836446        0.0000783330       -0.0014095123
	            -0.0010177331       -0.0015237471        0.0007651698
	             0.0002596549        0.0002588530       -0.0001655983
	             0.0000468938        0.0003243250       -0.0001059126
	             0.0002270925        0.0004647465        0.0002980004
	            -0.0007157041        0.0001646575        0.0025370133
	             0.0001995890       -0.0003104839       -0.0003240156
	             0.0004715310        0.0000206666       -0.0003749394
	             0.0004897684       -0.0002128148       -0.0002778987
	            -0.0001122843       -0.0000686648        0.0004863307
	            -0.0000993488       -0.0000854741        0.0000074597
	            -0.0001033073       -0.0000269338       -0.0000609568
	             0.0001607813       -0.0001344812        0.0000052891

	---Fragment 1 Intrafragment Coordinates---
	 - Coordinate -           - BOHR/RAD -       - ANG/DEG -
	 R(1,2)           =         3.118832	       1.650415
	 R(1,6)           =         2.378565	       1.258682
	 R(1,7)           =         2.399976	       1.270012
	 R(2,5)           =         2.562499	       1.356016
	 R(3,4)           =         2.059979	       1.090094
	 R(3,5)           =         2.486462	       1.315779
	 R(3,16)          =         2.810384	       1.487191
	 R(5,8)           =         2.761142	       1.461133
	 R(7,12)          =         2.753619	       1.457152
	 R(8,9)           =         2.059986	       1.090097
	 R(8,10)          =         2.062707	       1.091538
	 R(8,11)          =         2.069074	       1.094907
	 R(12,13)         =         2.074218	       1.097629
	 R(12,14)         =         2.073784	       1.097399
	 R(12,15)         =         2.064207	       1.092331
	 R(16,17)         =         2.063594	       1.092007
	 R(16,18)         =         2.075709	       1.098418
	 R(16,19)         =         2.059101	       1.089629
	 B(1,2,5)         =         1.824248	     104.521709
	 B(1,7,12)        =         2.109793	     120.882242
	 B(2,1,6)         =         1.913873	     109.656829
	 B(2,1,7)         =         1.976779	     113.261087
	 B(2,5,3)         =         1.979862	     113.437726
	 B(2,5,8)         =         1.977378	     113.295402
	 B(3,5,8)         =         2.126944	     121.864925
	 B(3,16,17)       =         1.905731	     109.190323
	 B(3,16,18)       =         1.894136	     108.526000
	 B(3,16,19)       =         1.947695	     111.594687
	 B(4,3,5)         =         2.001612	     114.683923
	 B(4,3,16)        =         2.060097	     118.034862
	 B(5,3,16)        =         2.158796	     123.689911
	 B(5,8,9)         =         1.880952	     107.770616
	 B(5,8,10)        =         1.904393	     109.113693
	 B(5,8,11)        =         1.896473	     108.659897
	 B(6,1,7)         =         2.392477	     137.078862
	 B(7,12,13)       =         1.957463	     112.154392
	 B(7,12,14)       =         1.962040	     112.416607
	 B(7,12,15)       =         1.882385	     107.852698
	 B(9,8,10)        =         1.920959	     110.062824
	 B(9,8,11)        =         1.923742	     110.222314
	 B(10,8,11)       =         1.936199	     110.936038
	 B(13,12,14)      =         1.882266	     107.845877
	 B(13,12,15)      =         1.886645	     108.096814
	 B(14,12,15)      =         1.890714	     108.329907
	 B(17,16,18)      =         1.893036	     108.462977
	 B(17,16,19)      =         1.911659	     109.530001
	 B(18,16,19)      =         1.910723	     109.476353
	 D(1,2,5,3)       =        -0.872445	     -49.987407
	 D(1,2,5,8)       =         1.647852	      94.414991
	 D(1,7,12,13)     =        -1.128394	     -64.652192
	 D(1,7,12,14)     =         0.996167	      57.076166
	 D(1,7,12,15)     =         3.079357	     176.434188
	 D(2,1,7,12)      =         0.039579	       2.267700
	 D(2,5,3,4)       =         2.791817	     159.959305
	 D(2,5,3,16)      =        -0.731324	     -41.901780
	 D(2,5,8,9)       =         1.018761	      58.370681
	 D(2,5,8,10)      =         3.104317	     177.864243
	 D(2,5,8,11)      =        -1.065681	     -61.059006
	 D(3,5,8,9)       =        -2.802880	    -160.593198
	 D(3,5,8,10)      =        -0.717324	     -41.099636
	 D(3,5,8,11)      =         1.395864	      79.977114
	 D(4,3,5,8)       =         0.331141	      18.972958
	 D(4,3,16,17)     =        -0.979595	     -56.126637
	 D(4,3,16,18)     =         1.080812	      61.925985
	 D(4,3,16,19)     =        -3.095434	    -177.355286
	 D(5,2,1,6)       =         0.204442	      11.713685
	 D(5,2,1,7)       =        -2.946559	    -168.825420
	 D(5,3,16,17)     =         2.555376	     146.412255
	 D(5,3,16,18)     =        -1.667402	     -95.535124
	 D(5,3,16,19)     =         0.439537	      25.183606
	 D(6,1,7,12)      =        -3.115026	    -178.477824
	 D(8,5,3,16)      =         3.091185	     177.111874
	 R(1,16)          =         5.686936	       3.009397
	 R(3,6)           =         3.969867	       2.100763
	 R(6,8)           =         5.985108	       3.167183
	 R(6,16)          =         4.977566	       2.634014

	Current energy   :      -455.0180926069

	Energy change for the previous step:
		Projected    :        -0.0021788347
		Actual       :        -0.0024671428

	Performing Bofill update.
	Previous computed or guess Hessian on step 1.
	Steps to be used in Hessian update: 1
	Taking PRFO optimization step.
	Maximizing along 1 lowest eigenvalue of Hessian.

 RFO min eigenvalues
 -0.002029 -0.000000 -0.000000 -0.000000 -0.000000 -0.000000 -0.000000 -0.000000
 -0.000000 -0.000000 -0.000000 -0.000000 -0.000000 -0.000000  0.000000  0.000000
  0.000000  0.000000  0.000000  0.000000  0.000000  0.000000  0.000000  0.000000
  0.000000  0.004155  0.004953  0.006327  0.007311  0.013696  0.018313  0.022054
  0.024459  0.026425  0.031514  0.047369  0.072987  0.074268  0.075815  0.076826
  0.084535  0.095154  0.099523  0.152701  0.154499  0.159996  0.159996  0.159998
  0.159998  0.159999  0.160000  0.160000  0.160351  0.174291  0.205273  0.214109
  0.242346  0.249945  0.252922  0.317016  0.344578  0.344825  0.345593  0.347305
  0.350865  0.351781  0.352238  0.353514  0.354134  0.355451  0.357779  0.382417
  0.544170  0.629260  0.834565  0.856126

 RFO max eigenvalues
 -0.000000  0.000000
	|RFO target step|  :        0.3288754534
	RFO gradient       :       -0.0061686992
	RFO hessian        :        0.0167343929
	Projected Delta(E) :       -0.0010140653

	Back-transformation to cartesian coordinates...
	Could not converge backtransformation.
	Using first guess instead.

	--- Internal Coordinate Step in ANG or DEG, aJ/ANG or AJ/DEG ---
	 ---------------------------------------------------------------------------
	   Coordinate                Previous        Force       Change         New 
	   ----------                --------       ------       ------       ------
	    1 R(1,2)          =      1.650415     0.070887     0.063984     1.714399
	    2 R(1,6)          =      1.258682    -0.018914    -0.002385     1.256298
	    3 R(1,7)          =      1.270012    -0.008848    -0.000783     1.269229
	    4 R(2,5)          =      1.356016     0.010800     0.004845     1.360861
	    5 R(3,4)          =      1.090094    -0.002350     0.000895     1.090989
	    6 R(3,5)          =      1.315779    -0.017484    -0.003513     1.312266
	    7 R(3,16)         =      1.487191    -0.009010    -0.002394     1.484797
	    8 R(5,8)          =      1.461133     0.000327     0.003352     1.464486
	    9 R(7,12)         =      1.457152     0.004210     0.005643     1.462795
	   10 R(8,9)          =      1.090097    -0.002556     0.001016     1.091114
	   11 R(8,10)         =      1.091538    -0.001503     0.000296     1.091833
	   12 R(8,11)         =      1.094907    -0.003881    -0.000191     1.094715
	   13 R(12,13)        =      1.097629    -0.002996     0.001823     1.099452
	   14 R(12,14)        =      1.097399    -0.003306     0.000916     1.098315
	   15 R(12,15)        =      1.092331    -0.002292     0.001812     1.094143
	   16 R(16,17)        =      1.092007    -0.000555     0.001015     1.093022
	   17 R(16,18)        =      1.098418    -0.000948     0.001362     1.099780
	   18 R(16,19)        =      1.089629    -0.001718     0.000619     1.090248
	   19 B(1,2,5)        =    104.521709    -0.000140    -1.098219   103.423491
	   20 B(1,7,12)       =    120.882242    -0.000311    -2.613260   118.268982
	   21 B(2,1,6)        =    109.656829    -0.000052    -0.171279   109.485550
	   22 B(2,1,7)        =    113.261087    -0.000102    -1.054827   112.206260
	   23 B(2,5,3)        =    113.437726     0.000039     0.854193   114.291920
	   24 B(2,5,8)        =    113.295402    -0.000048     0.363010   113.658412
	   25 B(3,5,8)        =    121.864925     0.000023     1.341105   123.206029
	   26 B(3,16,17)      =    109.190323    -0.000011    -0.167820   109.022503
	   27 B(3,16,18)      =    108.526000    -0.000001     0.072048   108.598048
	   28 B(3,16,19)      =    111.594687     0.000003     0.058171   111.652858
	   29 B(4,3,5)        =    114.683923    -0.000009    -0.255418   114.428505
	   30 B(4,3,16)       =    118.034862     0.000050     0.389334   118.424197
	   31 B(5,3,16)       =    123.689911    -0.000034    -0.477356   123.212554
	   32 B(5,8,9)        =    107.770616    -0.000018    -0.292316   107.478300
	   33 B(5,8,10)       =    109.113693    -0.000021    -0.401836   108.711857
	   34 B(5,8,11)       =    108.659897    -0.000034    -0.416173   108.243725
	   35 B(6,1,7)        =    137.078862     0.000154     1.078190   138.157052
	   36 B(7,12,13)      =    112.154392    -0.000017    -0.039553   112.114840
	   37 B(7,12,14)      =    112.416607    -0.000036    -0.603997   111.812610
	   38 B(7,12,15)      =    107.852698    -0.000045    -0.786384   107.066314
	   39 B(9,8,10)       =    110.062824     0.000023     0.342179   110.405002
	   40 B(9,8,11)       =    110.222314     0.000023     0.328555   110.550870
	   41 B(10,8,11)      =    110.936038     0.000025     0.392294   111.328332
	   42 B(13,12,14)     =    107.845877     0.000030     0.388446   108.234322
	   43 B(13,12,15)     =    108.096814     0.000035     0.479377   108.576191
	   44 B(14,12,15)     =    108.329907     0.000038     0.619221   108.949128
	   45 B(17,16,18)     =    108.462977     0.000007     0.095742   108.558719
	   46 B(17,16,19)     =    109.530001     0.000003    -0.015325   109.514676
	   47 B(18,16,19)     =    109.476353    -0.000001    -0.040636   109.435716
	   48 D(1,2,5,3)      =    -49.987407    -0.000009    -2.896121   -52.883528
	   49 D(1,2,5,8)      =     94.414991    -0.000002     1.320033    95.735024
[...]
	            -0.0000135076        0.0000130113       -0.0000173758
	             0.0000171407        0.0000102951        0.0000106070
	            -0.0000029210       -0.0000218346        0.0000071891
	            -0.0000129277        0.0000109679       -0.0000139102
	            -0.0000095097       -0.0000009720       -0.0000229405
	            -0.0000032126        0.0000020491        0.0000025642
	             0.0000012963       -0.0000010249       -0.0000064237
	            -0.0000004594       -0.0000074750        0.0000055854

	---Fragment 1 Intrafragment Coordinates---
	 - Coordinate -           - BOHR/RAD -       - ANG/DEG -
	 R(1,2)           =         3.188403	       1.687230
	 R(1,6)           =         2.386204	       1.262725
	 R(1,7)           =         2.393548	       1.266611
	 R(2,5)           =         2.578129	       1.364287
	 R(3,4)           =         2.060031	       1.090121
	 R(3,5)           =         2.498896	       1.322359
	 R(3,16)          =         2.813792	       1.488995
	 R(5,8)           =         2.763042	       1.462139
	 R(7,12)          =         2.761124	       1.461124
	 R(8,9)           =         2.058994	       1.089573
	 R(8,10)          =         2.062850	       1.091613
	 R(8,11)          =         2.068944	       1.094838
	 R(12,13)         =         2.071420	       1.096148
	 R(12,14)         =         2.070790	       1.095815
	 R(12,15)         =         2.062818	       1.091596
	 R(16,17)         =         2.063222	       1.091810
	 R(16,18)         =         2.074680	       1.097873
	 R(16,19)         =         2.059011	       1.089582
	 B(1,2,5)         =         1.798219	     103.030348
	 B(1,7,12)        =         2.092027	     119.864299
	 B(2,1,6)         =         1.897822	     108.737197
	 B(2,1,7)         =         1.988487	     113.931919
	 B(2,5,3)         =         1.954248	     111.970188
	 B(2,5,8)         =         1.969455	     112.841459
	 B(3,5,8)         =         2.118089	     121.357556
	 B(3,16,17)       =         1.907221	     109.275725
	 B(3,16,18)       =         1.894175	     108.528253
	 B(3,16,19)       =         1.943808	     111.371980
	 B(4,3,5)         =         1.999285	     114.550606
	 B(4,3,16)        =         2.055124	     117.749932
	 B(5,3,16)        =         2.142854	     122.776515
	 B(5,8,9)         =         1.878821	     107.648499
	 B(5,8,10)        =         1.900981	     108.918186
	 B(5,8,11)        =         1.902526	     109.006721
	 B(6,1,7)         =         2.396675	     137.319374
	 B(7,12,13)       =         1.951544	     111.815235
	 B(7,12,14)       =         1.954489	     111.983974
	 B(7,12,15)       =         1.878850	     107.650171
	 B(9,8,10)        =         1.920528	     110.038146
	 B(9,8,11)        =         1.924099	     110.242780
	 B(10,8,11)       =         1.935744	     110.909975
	 B(13,12,14)      =         1.887595	     108.151246
	 B(13,12,15)      =         1.892850	     108.452296
	 B(14,12,15)      =         1.897016	     108.691036
	 B(17,16,18)      =         1.895121	     108.582407
	 B(17,16,19)      =         1.914105	     109.670120
	 B(18,16,19)      =         1.908681	     109.359394
	 D(1,2,5,3)       =        -0.845328	     -48.433721
	 D(1,2,5,8)       =         1.618218	      92.717071
	 D(1,7,12,13)     =        -1.116636	     -63.978558
	 D(1,7,12,14)     =         1.005069	      57.586206
	 D(1,7,12,15)     =         3.089236	     177.000186
	 D(2,1,7,12)      =         0.049477	       2.834846
	 D(2,5,3,4)       =         2.760585	     158.169855
	 D(2,5,3,16)      =        -0.825240	     -47.282763
	 D(2,5,8,9)       =         1.044794	      59.862308
	 D(2,5,8,10)      =         3.126696	     179.146463
	 D(2,5,8,11)      =        -1.042243	     -59.716118
	 D(3,5,8,9)       =        -2.846227	    -163.076823
	 D(3,5,8,10)      =        -0.764326	     -43.792667
	 D(3,5,8,11)      =         1.349921	      77.344751
	 D(4,3,5,8)       =         0.362621	      20.776658
	 D(4,3,16,17)     =        -0.955827	     -54.764868
	 D(4,3,16,18)     =         1.107951	      63.480911
	 D(4,3,16,19)     =        -3.073221	    -176.082579
	 D(5,2,1,6)       =         0.241599	      13.842582
	 D(5,2,1,7)       =        -2.917732	    -167.173733
	 D(5,3,16,17)     =         2.643273	     151.448413
	 D(5,3,16,18)     =        -1.576134	     -90.305808
	 D(5,3,16,19)     =         0.525880	      30.130703
	 D(6,1,7,12)      =        -3.116895	    -178.584956
	 D(8,5,3,16)      =         3.059982	     175.324040
	 R(1,16)          =         5.712425	       3.022885
	 R(3,6)           =         3.802739	       2.012323
	 R(6,8)           =         5.938219	       3.142370
	 R(6,16)          =         4.935845	       2.611937

	Current energy   :      -455.0181706360

	Energy change for the previous step:
		Projected    :        -0.0000005631
		Actual       :        -0.0000007911

	Performing Bofill update.
	Previous computed or guess Hessian on step 1.
	Steps to be used in Hessian update: 24 23
	Taking PRFO optimization step.
	Maximizing along 1 lowest eigenvalue of Hessian.

 RFO min eigenvalues
 -0.000002 -0.000000 -0.000000 -0.000000 -0.000000 -0.000000 -0.000000 -0.000000
 -0.000000 -0.000000 -0.000000 -0.000000 -0.000000 -0.000000 -0.000000  0.000000
  0.000000  0.000000  0.000000  0.000000  0.000000  0.000000  0.000000  0.000000
  0.000000  0.000000  0.001016  0.003163  0.006855  0.012829  0.022026  0.024023
  0.031295  0.032895  0.055352  0.067809  0.073003  0.074402  0.075955  0.076793
  0.086599  0.096313  0.099927  0.120283  0.153058  0.159602  0.159983  0.160009
  0.160079  0.160199  0.160441  0.160975  0.162264  0.167587  0.206848  0.210346
  0.249433  0.256320  0.274557  0.319419  0.336542  0.344498  0.344839  0.347041
  0.350510  0.351780  0.352042  0.353657  0.354132  0.355089  0.364149  0.386061
  0.558847  0.644576  0.837161  0.850501

 RFO max eigenvalues
 -0.022295  0.000000
	|RFO target step|  :        0.0181406698
	RFO gradient       :       -0.0000960880
	RFO hessian        :        0.0052950413
	Projected Delta(E) :       -0.0000008716

	Back-transformation to cartesian coordinates...
	Could not converge backtransformation.
	Using first guess instead.

	--- Internal Coordinate Step in ANG or DEG, aJ/ANG or AJ/DEG ---
	 ---------------------------------------------------------------------------
	   Coordinate                Previous        Force       Change         New 
	   ----------                --------       ------       ------       ------
	    1 R(1,2)          =      1.687230     0.001895     0.001793     1.689023
	    2 R(1,6)          =      1.262725    -0.000889    -0.000133     1.262592
	    3 R(1,7)          =      1.266611    -0.000916    -0.000171     1.266440
	    4 R(2,5)          =      1.364287    -0.000739    -0.000116     1.364171
	    5 R(3,4)          =      1.090121    -0.000052    -0.000008     1.090113
	    6 R(3,5)          =      1.322359     0.000087     0.000118     1.322476
	    7 R(3,16)         =      1.488995    -0.000027    -0.000013     1.488982
	    8 R(5,8)          =      1.462139     0.000080     0.000130     1.462269
	    9 R(7,12)         =      1.461124     0.000038     0.000013     1.461137
	   10 R(8,9)          =      1.089573    -0.000020    -0.000007     1.089566
	   11 R(8,10)         =      1.091613    -0.000036     0.000015     1.091628
	   12 R(8,11)         =      1.094838    -0.000010     0.000029     1.094868
	   13 R(12,13)        =      1.096148     0.000160     0.000068     1.096217
	   14 R(12,14)        =      1.095815     0.000177     0.000108     1.095922
	   15 R(12,15)        =      1.091596     0.000178     0.000072     1.091668
	   16 R(16,17)        =      1.091810    -0.000029     0.000003     1.091813
	   17 R(16,18)        =      1.097873    -0.000035    -0.000000     1.097873
	   18 R(16,19)        =      1.089582    -0.000037    -0.000009     1.089573
	   19 B(1,2,5)        =    103.030348    -0.000003    -0.053401   102.976947
	   20 B(1,7,12)       =    119.864299     0.000003     0.025122   119.889421
	   21 B(2,1,6)        =    108.737197    -0.000003    -0.047424   108.689773
	   22 B(2,1,7)        =    113.931919    -0.000003    -0.007414   113.924505
	   23 B(2,5,3)        =    111.970188     0.000000    -0.021349   111.948840
	   24 B(2,5,8)        =    112.841459     0.000001    -0.008959   112.832499
	   25 B(3,5,8)        =    121.357556    -0.000001    -0.049579   121.307977
	   26 B(3,16,17)      =    109.275725     0.000000     0.005445   109.281170
	   27 B(3,16,18)      =    108.528253     0.000000     0.007026   108.535278
	   28 B(3,16,19)      =    111.371980    -0.000001    -0.010113   111.361868
	   29 B(4,3,5)        =    114.550606     0.000000    -0.004197   114.546409
	   30 B(4,3,16)       =    117.749932    -0.000000    -0.000402   117.749529
	   31 B(5,3,16)       =    122.776515     0.000000    -0.001494   122.775021
	   32 B(5,8,9)        =    107.648499     0.000001    -0.007059   107.641440
	   33 B(5,8,10)       =    108.918186     0.000001     0.011136   108.929323
	   34 B(5,8,11)       =    109.006721     0.000000     0.006611   109.013332
	   35 B(6,1,7)        =    137.319374     0.000006     0.054703   137.374077
	   36 B(7,12,13)      =    111.815235    -0.000001    -0.004650   111.810585
	   37 B(7,12,14)      =    111.983974    -0.000001     0.001439   111.985413
	   38 B(7,12,15)      =    107.650171     0.000000     0.007119   107.657290
	   39 B(9,8,10)       =    110.038146    -0.000001    -0.004833   110.033313
	   40 B(9,8,11)       =    110.242780    -0.000001    -0.006014   110.236765
	   41 B(10,8,11)      =    110.909975    -0.000000     0.000289   110.910264
	   42 B(13,12,14)     =    108.151246     0.000001    -0.002187   108.149059
	   43 B(13,12,15)     =    108.452296     0.000001    -0.000651   108.451645
	   44 B(14,12,15)     =    108.691036     0.000001    -0.001037   108.689999
	   45 B(17,16,18)     =    108.582407    -0.000000    -0.003167   108.579239
	   46 B(17,16,19)     =    109.670120     0.000000     0.004063   109.674184
	   47 B(18,16,19)     =    109.359394     0.000000    -0.003113   109.356281
	   48 D(1,2,5,3)      =    -48.433721     0.000000    -0.016493   -48.450215
	   49 D(1,2,5,8)      =     92.717071    -0.000000    -0.130786    92.586284
	   50 D(1,7,12,13)    =    -63.978558     0.000000    -0.041581   -64.020139
	   51 D(1,7,12,14)    =     57.586206    -0.000000    -0.046728    57.539478
	   52 D(1,7,12,15)    =    177.000186     0.000000    -0.042574   176.957612
	   53 D(2,1,7,12)     =      2.834846     0.000000    -0.013205     2.821641
	   54 D(2,5,3,4)      =    158.169855    -0.000000    -0.008312   158.161543
	   55 D(2,5,3,16)     =    -47.282763    -0.000000    -0.023314   -47.306077
	   56 D(2,5,8,9)      =     59.862308    -0.000000    -0.316931    59.545377
	   57 D(2,5,8,10)     =    179.146463    -0.000000    -0.320537   178.825926
	   58 D(2,5,8,11)     =    -59.716118    -0.000000    -0.309370   -60.025488
	   59 D(3,5,8,9)      =   -163.076823    -0.000000    -0.428849  -163.505672
	   60 D(3,5,8,10)     =    -43.792667    -0.000000    -0.432455   -44.225123
	   61 D(3,5,8,11)     =     77.344751    -0.000000    -0.421288    76.923464
	   62 D(4,3,5,8)      =     20.776658    -0.000000     0.097845    20.874503
	   63 D(4,3,16,17)    =    -54.764868     0.000000     0.063267   -54.701602
	   64 D(4,3,16,18)    =     63.480911     0.000000     0.066609    63.547519
	   65 D(4,3,16,19)    =   -176.082579     0.000000     0.061067  -176.021512
	   66 D(5,2,1,6)      =     13.842582     0.000000     0.023514    13.866095
	   67 D(5,2,1,7)      =   -167.173733    -0.000000     0.018284  -167.155449
	   68 D(5,3,16,17)    =    151.448413    -0.000000     0.079625   151.528039
	   69 D(5,3,16,18)    =    -90.305808    -0.000000     0.082967   -90.222841
	   70 D(5,3,16,19)    =     30.130703    -0.000000     0.077425    30.208128
	   71 D(6,1,7,12)     =   -178.584956    -0.000000    -0.022392  -178.607348
	   72 D(8,5,3,16)     =    175.324040     0.000000     0.082843   175.406882
	   73 R(1,16)         =      3.022885    -0.000070     0.000153     3.023038
	   74 R(3,6)          =      2.012323    -0.000413    -0.001405     2.010918
	   75 R(6,8)          =      3.142370    -0.000350    -0.002684     3.139686
	   76 R(6,16)         =      2.611937    -0.000048    -0.000173     2.611764
	 ---------------------------------------------------------------------------
	Successfully symmetrized geometry.

  ==> Convergence Check <==

  Measures of convergence in internal coordinates in au.
  Criteria marked as inactive (o), active & met (*), and active & unmet ( ).
  ---------------------------------------------------------------------------------------------
   Step     Total Energy     Delta E     MAX Force     RMS Force      MAX Disp      RMS Disp   
  ---------------------------------------------------------------------------------------------
    Convergence Criteria    1.00e-06 *    3.00e-04 *             o    1.20e-03 *             o
  ---------------------------------------------------------------------------------------------
     25    -455.01817064   -7.91e-07 *    2.30e-04 *    3.75e-05 o    7.55e-03      2.08e-03 o  ~
  ---------------------------------------------------------------------------------------------


  **** Optimization is complete! (in 25 steps) ****

  ==> Optimization Summary <==

  Measures of convergence in internal coordinates in au.
  --------------------------------------------------------------------------------------------------------------- ~
   Step         Total Energy             Delta E       MAX Force       RMS Force        MAX Disp        RMS Disp  ~
  --------------------------------------------------------------------------------------------------------------- ~
      1    -455.015625464093   -455.015625464093      0.03090757      0.00546693      0.06914401      0.01607522  ~
      2    -455.018092606892     -0.002467142799      0.00860415      0.00128787      0.16148431      0.03791841  ~
      3    -455.019532734848     -0.001440127956      0.01350417      0.00286837      0.19899625      0.05701204  ~
      4    -455.017620813045      0.001911921803      0.00728275      0.00205329      0.20279148      0.05794544  ~
      5    -455.017638343423     -0.000017530378      0.01313212      0.00404622      0.19708877      0.05675450  ~
      6    -455.017312244893      0.000326098530      0.00915678      0.00244957      0.10739431      0.03325697  ~
      7    -455.017755969562     -0.000443724669      0.00371339      0.00108332      0.13774066      0.03789317  ~
      8    -455.017786801287     -0.000030831724      0.00450496      0.00136173      0.17590685      0.05726296  ~
      9    -455.016445993153      0.001340808134      0.00787136      0.00304068      0.07831535      0.03015565  ~
     10    -455.017301588114     -0.000855594961      0.00718996      0.00204164      0.17903080      0.05696125  ~
     11    -455.017654905743     -0.000353317628      0.00960829      0.00240060      0.12618294      0.03356326  ~
     12    -455.017912401538     -0.000257495796      0.00447824      0.00095704      0.28588412      0.05753159  ~
     13    -455.015612325582      0.002300075957      0.02369766      0.00449977      0.06743500      0.01905610  ~
     14    -455.018102978178     -0.002490652596      0.00244186      0.00050736      0.03845040      0.01204051  ~
     15    -455.018149084671     -0.000046106493      0.00087642      0.00020982      0.27387377      0.05775765  ~
     16    -455.015636824791      0.002512259880      0.02190978      0.00445480      0.06221385      0.01827511  ~
     17    -455.018059447646     -0.002422622855      0.00206169      0.00050864      0.14701184      0.03099371  ~
     18    -455.018004860987      0.000054586658      0.00624970      0.00116264      0.05527370      0.01162570  ~
     19    -455.018161040761     -0.000156179773      0.00063977      0.00015499      0.02377931      0.00454934  ~
     20    -455.018165795443     -0.000004754682      0.00054550      0.00011576      0.13922729      0.02744280  ~
     21    -455.017992447672      0.000173347771      0.00585506      0.00117878      0.07917324      0.01575377  ~
     22    -455.018154321533     -0.000161873861      0.00166563      0.00033630      0.02796683      0.00554960  ~
     23    -455.018168641701     -0.000014320168      0.00035548      0.00006675      0.02420983      0.00472028  ~
     24    -455.018169844883     -0.000001203182      0.00026554      0.00006108      0.00207924      0.00053526  ~
     25    -455.018170636024     -0.000000791141      0.00023007      0.00003754      0.00754777      0.00208058  ~
  --------------------------------------------------------------------------------------------------------------- ~

	Writing optimization data to binary file.
	Final energy is   -455.0181706360238
	Final (previous) structure:
	Cartesian Geometry (in Angstrom)
	    C     0.4469941897  -0.3014165859   0.8688355205
	    O     0.4811597657  -0.1529900092  -0.8115059408
	    C    -1.6249350327   0.4593072437  -0.4251581863
	    H    -2.2997192837   1.3025654862  -0.2770154397
	    N    -0.5039191069   0.7575957726  -1.0599647823
	    O    -0.6176657989   0.2224400055   1.3007463859
	    N     1.4496177432  -0.9063075169   1.3516988979
	    C    -0.0055313871   2.1308816666  -1.1195082712
	    H     0.7305255304   2.1806951228  -1.9213235615
	    H    -0.8397128995   2.8010796795  -1.3353685236
	    H     0.4603977180   2.3829678785  -0.1613678520
	    C     2.5284843660  -1.3456135012   0.4696898289
	    H     2.1861566501  -2.1000327313  -0.2480878172
	    H     2.9636746258  -0.5119225471  -0.0927855139
	    H     3.3059370442  -1.7901786000   1.0937986869
	    C    -2.2145453429  -0.9079692042  -0.4296769519
	    H    -2.7805575392  -1.0594406473   0.4915915918
	    H    -2.9034818636  -0.9879978099  -1.2807276903
	    H    -1.4432553484  -1.6727013708  -0.5161940522
	Saving final (previous) structure.
	Removing binary optimization data file.
			--------------------------
			 OPTKING Finished Execution 
			--------------------------

    Final optimized geometry and variables:
    Molecular point group: c1
    Full point group: C1

    Geometry (in Angstrom), charge = 0, multiplicity = 1:

    C            0.446994189693    -0.301416585888     0.868835520532
    O            0.481159765750    -0.152990009249    -0.811505940796
    C           -1.624935032683     0.459307243726    -0.425158186291
    H           -2.299719283682     1.302565486172    -0.277015439688
    N           -0.503919106926     0.757595772629    -1.059964782334
    O           -0.617665798857     0.222440005482     1.300746385918
    N            1.449617743233    -0.906307516934     1.351698897941
    C           -0.005531387103     2.130881666623    -1.119508271191
    H            0.730525530364     2.180695122776    -1.921323561544
    H           -0.839712899481     2.801079679522    -1.335368523612
    H            0.460397718036     2.382967878521    -0.161367851959
    C            2.528484366012    -1.345613501225     0.469689828932
    H            2.186156650123    -2.100032731256    -0.248087817230
    H            2.963674625835    -0.511922547079    -0.092785513880
    H            3.305937044249    -1.790178599965     1.093798686939
    C           -2.214545342872    -0.907969204230    -0.429676951853
    H           -2.780557539155    -1.059440647323     0.491591591761
    H           -2.903481863599    -0.987997809925    -1.280727690315
    H           -1.443255348441    -1.672701370835    -0.516194052189

	Removing binary optimization data file.
	Cleaning optimization helper files.

    Psi4 stopped on: Tuesday, 15 January 2019 09:14AM
    Psi4 wall time for execution: 0:22:37.84

*** Psi4 exiting successfully. Buy a developer a beer!
