
    -----------------------------------------------------------------------
          Psi4: An Open-Source Ab Initio Electronic Structure Package
                               Psi4 1.2.1 release

                         Git: Rev {HEAD} 406f4de 


    R. M. Parrish, L. A. Burns, D. G. A. Smith, A. C. Simmonett,
    A. E. DePrince III, E. G. Hohenstein, U. Bozkaya, A. Yu. Sokolov,
    R. Di Remigio, R. M. Richard, J. F. Gonthier, A. M. James,
    H. R. McAlexander, A. Kumar, M. Saitow, X. Wang, B. P. Pritchard,
    P. Verma, H. F. Schaefer III, K. Patkowski, R. A. King, E. F. Valeev,
    F. A. Evangelista, J. M. Turney, T. D. Crawford, and C. D. Sherrill,
    J. Chem. Theory Comput. 13(7) pp 3185--3197 (2017).
    (doi: 10.1021/acs.jctc.7b00174)


                         Additional Contributions by
    P. Kraus, H. Kruse, M. H. Lechner, M. C. Schieber, and R. A. Shaw

    -----------------------------------------------------------------------


    Psi4 started on: Monday, 21 January 2019 03:43PM

    Process ID: 19636
    Host:       localhost.localdomain
    PSIDATADIR: /root/psi4conda/share/psi4
    Memory:     500.0 MiB
    Threads:    1
    
  ==> Input File <==

--------------------------------------------------------------------------
molecule{
0 1
C 0.0243272819 -0.1669752439 -1.4576325328

O -1.0648161708 -0.3091282789 -2.1449845878

Br 1.5914289211 0.3097821857 0.9049835893

Br -1.5829151645 0.4745967321 0.8890379982

H 0.9771788562 2.9101588202 -1.8188499572

C 1.2104296737 1.8677450067 -1.6144971799

H 1.4009212770 1.3273640421 -2.5445434213

H 2.0684812003 1.8026701985 -0.9482891645

O 0.0824054410 1.2986775512 -0.9347840067

H -0.8158248671 0.9466707559 -1.5217095565

C -0.0322742141 -0.3926999343 0.0567200689

Br -0.1124097396 -2.3167714549 0.4321812267

H 0.9838333741 -0.5485810250 -1.8481203080 
}

basis {
  assign 6-311ppgss
  assign Br def2-tzvpp
}

set{
   freeze_core True
   opt_type ts
}


set_num_threads(32)
optimize('m06-2x')
--------------------------------------------------------------------------
  Threads set to 32 by Python driver.
gradient() will perform analytic gradient computation.

*** tstart() called on localhost.localdomain
*** at Mon Jan 21 15:43:40 2019

   => Loading Basis Set <=

    Name: ANONYMOUS49BEEDDC
    Role: ORBITAL
    Keyword: BASIS
    atoms 1, 6, 11       entry C          line   119 file /root/psi4conda/share/psi4/basis/6-311ppgss.gbs 
    atoms 2, 9           entry O          line   161 file /root/psi4conda/share/psi4/basis/6-311ppgss.gbs 
    atoms 3-4, 12        entry BR         line  1545 file /root/psi4conda/share/psi4/basis/def2-tzvpp.gbs 
    atoms 5, 7-8, 10, 13 entry H          line    42 file /root/psi4conda/share/psi4/basis/6-311ppgss.gbs 


         ---------------------------------------------------------
                                   SCF
            by Justin Turney, Rob Parrish, Andy Simmonett
                             and Daniel Smith
                              RKS Reference
                       32 Threads,    500 MiB Core
         ---------------------------------------------------------

  ==> Geometry <==

    Molecular point group: c1
    Full point group: C1

    Geometry (in Angstrom), charge = 0, multiplicity = 1:

       Center              X                  Y                   Z               Mass       
    ------------   -----------------  -----------------  -----------------  -----------------
         C            0.039926481460     0.100697145116    -1.720697236547    12.000000000000
         O           -1.049216971240    -0.041455889884    -2.408049291547    15.994914619560
         BR           1.607028120660     0.577454574716     0.641918885553    78.918337087000
         BR          -1.567315964940     0.742269121116     0.625973294453    78.918337087000
         H            0.992778055760     3.177831209216    -2.081914660947     1.007825032070
         C            1.226028873260     2.135417395716    -1.877561883647    12.000000000000
         H            1.416520476560     1.595036431116    -2.807608125047     1.007825032070
         H            2.084080399860     2.070342587516    -1.211353868247     1.007825032070
         O            0.098004640560     1.566349940216    -1.197848710447    15.994914619560
         H           -0.800225667540     1.214343144916    -1.784774260247     1.007825032070
         C           -0.016675014540    -0.125027545284    -0.206344634847    12.000000000000
         BR          -0.096810540040    -2.049099065884     0.169116522953    78.918337087000
         H            0.999432573660    -0.280908635984    -2.111185011747     1.007825032070

  Running in c1 symmetry.

  Rotational constants: A =      0.02419  B =      0.02082  C =      0.01737 [cm^-1]
  Rotational constants: A =    725.08350  B =    624.22011  C =    520.69214 [MHz]
  Nuclear repulsion = 1514.395198259720928

  Charge       = 0
  Multiplicity = 1
  Electrons    = 144
  Nalpha       = 72
  Nbeta        = 72

  ==> Algorithm <==

  SCF Algorithm Type is DF.
  DIIS enabled.
  MOM disabled.
  Fractional occupation disabled.
  Guess Type is SAD.
  Energy threshold   = 1.00e-08
  Density threshold  = 1.00e-08
  Integral threshold = 0.00e+00

  ==> Primary Basis <==

  Basis Set: ANONYMOUS49BEEDDC
    Blend: 6-311PPGSS + DEF2-TZVPP
    Number of shells: 123
    Number of basis function: 289
    Number of Cartesian functions: 315
    Spherical Harmonics?: true
    Max angular momentum: 3

  ==> DFT Potential <==

   => Composite Functional: M06-2X <= 

    Hybrid M06-2X Meta-GGA XC Functional

    Y. Zhao and D. G. Truhlar,  Theor. Chem. Acc., 120, 215, 2008


    Deriv               =              1
    GGA                 =           TRUE
    Meta                =           TRUE

    Exchange Hybrid     =           TRUE
    MP2 Hybrid          =          FALSE

   => Exchange Functionals <=

    1.0000   XC_HYB_MGGA_X_M06_2X

   => Exact (HF) Exchange <=

    0.5400               HF 

   => Correlation Functionals <=

    1.0000   XC_MGGA_C_M06_2X

   => Molecular Quadrature <=

    Radial Scheme       =       TREUTLER
    Pruning Scheme      =           FLAT
    Nuclear Scheme      =       TREUTLER

    BS radius alpha     =              1
    Pruning alpha       =              1
    Radial Points       =             75
    Spherical Points    =            302
    Total Points        =         294002
    Total Blocks        =           2254
    Max Points          =            256
    Max Functions       =            255

   => Loading Basis Set <=

    Name: (ANONYMOUS49BEEDDC AUX)
    Role: JKFIT
    Keyword: DF_BASIS_SCF
    atoms 1, 6, 11       entry C          line   162 file /root/psi4conda/share/psi4/basis/aug-cc-pvtz-jkfit.gbs 
    atoms 2, 9           entry O          line   286 file /root/psi4conda/share/psi4/basis/aug-cc-pvtz-jkfit.gbs 
    atoms 3-4, 12        entry BR         line  3129 file /root/psi4conda/share/psi4/basis/def2-tzvpp-jkfit.gbs 
    atoms 5, 7-8, 10, 13 entry H          line    70 file /root/psi4conda/share/psi4/basis/aug-cc-pvtz-jkfit.gbs 

  ==> Pre-Iterations <==

   -------------------------------------------------------
    Irrep   Nso     Nmo     Nalpha   Nbeta   Ndocc  Nsocc
   -------------------------------------------------------
     A        289     289       0       0       0       0
   -------------------------------------------------------
    Total     289     289      72      72      72       0
   -------------------------------------------------------

  ==> Integral Setup <==

  ==> DiskDFJK: Density-Fitted J/K Matrices <==

    J tasked:                  Yes
    K tasked:                  Yes
    wK tasked:                  No
    OpenMP threads:             32
    Integrals threads:          32
    Memory (MB):               375
    Algorithm:                Disk
    Integral Cache:           NONE
    Schwarz Cutoff:          1E-12
    Fitting Condition:       1E-12

   => Auxiliary Basis Set <=

  Basis Set: (ANONYMOUS49BEEDDC AUX)
    Blend: AUG-CC-PVTZ-JKFIT + DEF2-TZVPP-JKFIT
    Number of shells: 400
    Number of basis function: 1548
    Number of Cartesian functions: 2043
    Spherical Harmonics?: true
    Max angular momentum: 5

  Minimum eigenvalue in the overlap matrix is 4.1874840482E-05.
  Using Symmetric Orthogonalization.

  SCF Guess: Superposition of Atomic Densities via on-the-fly atomic UHF.

  ==> Iterations <==

                           Total Energy        Delta E     RMS |[F,P]|

   @DF-RKS iter   0: -7991.86222664634170   -7.99186e+03   1.04589e-01 
   @DF-RKS iter   1: -7989.62761364278686    2.23461e+00   2.88040e-02 
   @DF-RKS iter   2: -7989.20718479908737    4.20429e-01   3.16379e-02 DIIS
   @DF-RKS iter   3: -7990.01168435633645   -8.04500e-01   9.10227e-03 DIIS
   @DF-RKS iter   4: -7990.13505650339357   -1.23372e-01   2.06660e-03 DIIS
   @DF-RKS iter   5: -7990.13883151847313   -3.77502e-03   9.81835e-04 DIIS
   @DF-RKS iter   6: -7990.13987829921462   -1.04678e-03   1.43301e-04 DIIS
   @DF-RKS iter   7: -7990.13991783377514   -3.95346e-05   7.87647e-05 DIIS
   @DF-RKS iter   8: -7990.13992675302597   -8.91925e-06   3.03344e-05 DIIS
   @DF-RKS iter   9: -7990.13992826205413   -1.50903e-06   6.71420e-06 DIIS
   @DF-RKS iter  10: -7990.13992836599482   -1.03941e-07   2.67554e-06 DIIS
   @DF-RKS iter  11: -7990.13992837803289   -1.20381e-08   6.14342e-07 DIIS
   @DF-RKS iter  12: -7990.13992837907972   -1.04683e-09   1.94544e-07 DIIS
   @DF-RKS iter  13: -7990.13992837919250   -1.12777e-10   7.01621e-08 DIIS
   @DF-RKS iter  14: -7990.13992837920250   -1.00044e-11   1.78536e-08 DIIS
   @DF-RKS iter  15: -7990.13992837919795    4.54747e-12   1.03304e-08 DIIS
   @DF-RKS iter  16: -7990.13992837919886   -9.09495e-13   6.30525e-09 DIIS

  ==> Post-Iterations <==

    Orbital Energies [Eh]
    ---------------------

    Doubly Occupied:                                                      

       1A   -485.394302     2A   -485.390009     3A   -485.379784  
       4A    -63.380034     5A    -63.375449     6A    -63.365327  
       7A    -57.198465     8A    -57.195843     9A    -57.195647  
      10A    -57.194034    11A    -57.191188    12A    -57.191054  
      13A    -57.183678    14A    -57.181152    15A    -57.181095  
      16A    -19.730308    17A    -19.624423    18A    -10.711893  
      19A    -10.704622    20A    -10.630136    21A     -9.045651  
      22A     -9.040879    23A     -9.030715    24A     -6.870096  
      25A     -6.865765    26A     -6.860540    27A     -6.860001  
      28A     -6.855415    29A     -6.855015    30A     -6.854851  
      31A     -6.845590    32A     -6.845388    33A     -2.903959  
      34A     -2.900664    35A     -2.900134    36A     -2.899583  
      37A     -2.896006    38A     -2.895609    39A     -2.891228  
      40A     -2.891201    41A     -2.888669    42A     -2.885966  
      43A     -2.885945    44A     -2.885415    45A     -2.885235  
      46A     -2.876590    47A     -2.876584    48A     -1.301065  
      49A     -1.154312    50A     -0.981549    51A     -0.885602  
      52A     -0.867252    53A     -0.859054    54A     -0.800901  
      55A     -0.695955    56A     -0.678984    57A     -0.615700  
      58A     -0.592730    59A     -0.552893    60A     -0.532586  
      61A     -0.508111    62A     -0.503587    63A     -0.475221  
      64A     -0.427273    65A     -0.401911    66A     -0.384923  
      67A     -0.381411    68A     -0.376223    69A     -0.351163  
      70A     -0.341851    71A     -0.340167    72A     -0.334239  

    Virtual:                                                              

      73A     -0.036799    74A     -0.010682    75A      0.000057  
      76A      0.008803    77A      0.023478    78A      0.028449  
      79A      0.033790    80A      0.048049    81A      0.051236  
      82A      0.068096    83A      0.077733    84A      0.083344  
      85A      0.089103    86A      0.109934    87A      0.114346  
      88A      0.117741    89A      0.125938    90A      0.131056  
      91A      0.133311    92A      0.143248    93A      0.157901  
      94A      0.176630    95A      0.178780    96A      0.189614  
      97A      0.200978    98A      0.210314    99A      0.232545  
     100A      0.235725   101A      0.253607   102A      0.257360  
     103A      0.268624   104A      0.273684   105A      0.284298  
     106A      0.293058   107A      0.297397   108A      0.308190  
     109A      0.321888   110A      0.326067   111A      0.328013  
     112A      0.332083   113A      0.344820   114A      0.351844  
     115A      0.360236   116A      0.371770   117A      0.376526  
     118A      0.384589   119A      0.394181   120A      0.416693  
     121A      0.429091   122A      0.432477   123A      0.437257  
     124A      0.444028   125A      0.460179   126A      0.472756  
     127A      0.487553   128A      0.499490   129A      0.508102  
     130A      0.532771   131A      0.536589   132A      0.559062  
     133A      0.567611   134A      0.579555   135A      0.590714  
     136A      0.602385   137A      0.611419   138A      0.626406  
     139A      0.631792   140A      0.651944   141A      0.689425  
     142A      0.713143   143A      0.739620   144A      0.772575  
     145A      0.813446   146A      0.850021   147A      0.860011  
     148A      0.907002   149A      0.958971   150A      0.960954  
     151A      1.002758   152A      1.020893   153A      1.056663  
     154A      1.082072   155A      1.129568   156A      1.153445  
     157A      1.180979   158A      1.187442   159A      1.217838  
     160A      1.235285   161A      1.247814   162A      1.272003  
     163A      1.304935   164A      1.325983   165A      1.340745  
     166A      1.344284   167A      1.362351   168A      1.383970  
     169A      1.391201   170A      1.400083   171A      1.405224  
     172A      1.409040   173A      1.418634   174A      1.425378  
     175A      1.434652   176A      1.440177   177A      1.452512  
     178A      1.456614   179A      1.477918   180A      1.488585  
     181A      1.502621   182A      1.525056   183A      1.534388  
     184A      1.539453   185A      1.546692   186A      1.557296  
     187A      1.562937   188A      1.572780   189A      1.586800  
     190A      1.588118   191A      1.589707   192A      1.602220  
     193A      1.606328   194A      1.620547   195A      1.629247  
     196A      1.659819   197A      1.681716   198A      1.683295  
     199A      1.692787   200A      1.704921   201A      1.713499  
     202A      1.724692   203A      1.734867   204A      1.737323  
     205A      1.761637   206A      1.771153   207A      1.777491  
     208A      1.783721   209A      1.816488   210A      1.827140  
     211A      1.838495   212A      1.854519   213A      1.867372  
     214A      1.873417   215A      1.892343   216A      1.918686  
     217A      1.952082   218A      1.981108   219A      2.005267  
     220A      2.023539   221A      2.047445   222A      2.065395  
     223A      2.089818   224A      2.126994   225A      2.177006  
     226A      2.205300   227A      2.206522   228A      2.263444  
     229A      2.279042   230A      2.344537   231A      2.428020  
     232A      2.450592   233A      2.480244   234A      2.526780  
     235A      2.550031   236A      2.599335   237A      2.653381  
     238A      2.674808   239A      2.786249   240A      2.852628  
     241A      2.904837   242A      2.924381   243A      2.971832  
     244A      3.030745   245A      3.108779   246A      3.131437  
     247A      3.202697   248A      3.272109   249A      3.302231  
     250A      3.362010   251A      3.391425   252A      3.484299  
     253A      3.545976   254A      3.707037   255A      3.733245  
     256A      3.828366   257A      3.859444   258A      4.004014  
     259A      4.085899   260A      4.092159   261A      4.098375  
     262A      4.106468   263A      4.120579   264A      4.129176  
     265A      4.145398   266A      4.171445   267A      4.184367  
     268A      4.200578   269A      4.211770   270A      4.219617  
     271A      4.264925   272A      4.303622   273A      4.431191  
     274A      4.477723   275A      4.493625   276A      5.231281  
     277A      5.249084   278A      5.356146   279A      5.404954  
     280A      5.620672   281A      5.907042   282A      7.635994  
     283A      7.692418   284A      7.712207   285A     23.660054  
     286A     23.855327   287A     23.978476   288A     49.989100  
     289A     50.115383  

    Final Occupation by Irrep:
              A 
    DOCC [    72 ]

  Energy converged.

  @DF-RKS Final Energy: -7990.13992837919886

   => Energetics <=

    Nuclear Repulsion Energy =           1514.3951982597209280
    One-Electron Energy =              -14133.9446364489303960
    Two-Electron Energy =                4775.4949931621567885
    DFT Exchange-Correlation Energy =    -146.0854833521463547
    Empirical Dispersion Energy =           0.0000000000000000
    VV10 Nonlocal Energy =                  0.0000000000000000
    Total Energy =                      -7990.1399283791988637



Properties will be evaluated at   0.000000,   0.000000,   0.000000 [a0]

Properties computed using the SCF density matrix

  Nuclear Dipole Moment: [e a0]
     X:     4.8757      Y:    13.4439      Z:   -21.4982

  Electronic Dipole Moment: [e a0]
     X:    -3.6613      Y:   -12.1651      Z:    21.0682

  Dipole Moment: [e a0]
     X:     1.2144      Y:     1.2788      Z:    -0.4299     Total:     1.8152

  Dipole Moment: [D]
     X:     3.0868      Y:     3.2503      Z:    -1.0927     Total:     4.6138


*** tstop() called on localhost.localdomain at Mon Jan 21 15:44:05 2019
Module time:
	user time   =     680.90 seconds =      11.35 minutes
	system time =      30.80 seconds =       0.51 minutes
	total time  =         25 seconds =       0.42 minutes
Total time:
	user time   =     680.90 seconds =      11.35 minutes
	system time =      30.80 seconds =       0.51 minutes
	total time  =         25 seconds =       0.42 minutes

*** tstart() called on localhost.localdomain
*** at Mon Jan 21 15:44:05 2019


         ------------------------------------------------------------
                                   SCF GRAD                          
                          Rob Parrish, Justin Turney,                
                       Andy Simmonett, and Alex Sokolov              
         ------------------------------------------------------------

  ==> Geometry <==

    Molecular point group: c1
    Full point group: C1

    Geometry (in Angstrom), charge = 0, multiplicity = 1:

       Center              X                  Y                   Z               Mass       
    ------------   -----------------  -----------------  -----------------  -----------------
         C            0.039926481460     0.100697145116    -1.720697236547    12.000000000000
         O           -1.049216971240    -0.041455889884    -2.408049291547    15.994914619560
         BR           1.607028120660     0.577454574716     0.641918885553    78.918337087000
         BR          -1.567315964940     0.742269121116     0.625973294453    78.918337087000
         H            0.992778055760     3.177831209216    -2.081914660947     1.007825032070
         C            1.226028873260     2.135417395716    -1.877561883647    12.000000000000
         H            1.416520476560     1.595036431116    -2.807608125047     1.007825032070
         H            2.084080399860     2.070342587516    -1.211353868247     1.007825032070
         O            0.098004640560     1.566349940216    -1.197848710447    15.994914619560
         H           -0.800225667540     1.214343144916    -1.784774260247     1.007825032070
         C           -0.016675014540    -0.125027545284    -0.206344634847    12.000000000000
         BR          -0.096810540040    -2.049099065884     0.169116522953    78.918337087000
         H            0.999432573660    -0.280908635984    -2.111185011747     1.007825032070

  Nuclear repulsion = 1514.395198259720928

  ==> Basis Set <==

  Basis Set: ANONYMOUS49BEEDDC
    Blend: 6-311PPGSS + DEF2-TZVPP
    Number of shells: 123
    Number of basis function: 289
    Number of Cartesian functions: 315
    Spherical Harmonics?: true
    Max angular momentum: 3

  ==> DFJKGrad: Density-Fitted SCF Gradients <==

    Gradient:                    1
    J tasked:                  Yes
    K tasked:                  Yes
    wK tasked:                  No
    OpenMP threads:             32
    Integrals threads:          32
    Memory (MB):               375
    Schwarz Cutoff:          0E+00
    Fitting Condition:       1E-12

   => Auxiliary Basis Set <=

  Basis Set: (ANONYMOUS49BEEDDC AUX)
    Blend: AUG-CC-PVTZ-JKFIT + DEF2-TZVPP-JKFIT
    Number of shells: 400
    Number of basis function: 1548
    Number of Cartesian functions: 2043
    Spherical Harmonics?: true
    Max angular momentum: 5

  ==> DFT Potential <==

   => Composite Functional: M06-2X <= 

    Hybrid M06-2X Meta-GGA XC Functional

    Y. Zhao and D. G. Truhlar,  Theor. Chem. Acc., 120, 215, 2008


    Deriv               =              1
    GGA                 =           TRUE
    Meta                =           TRUE

    Exchange Hybrid     =           TRUE
    MP2 Hybrid          =          FALSE

   => Exchange Functionals <=

    1.0000   XC_HYB_MGGA_X_M06_2X

   => Exact (HF) Exchange <=

    0.5400               HF 

   => Correlation Functionals <=

    1.0000   XC_MGGA_C_M06_2X

   => Molecular Quadrature <=

    Radial Scheme       =       TREUTLER
    Pruning Scheme      =           FLAT
    Nuclear Scheme      =       TREUTLER

    BS radius alpha     =              1
    Pruning alpha       =              1
    Radial Points       =             75
    Spherical Points    =            302
    Total Points        =         294002
    Total Blocks        =           2254
    Max Points          =            256
    Max Functions       =            255


  -Total Gradient:
     Atom            X                  Y                   Z
    ------   -----------------  -----------------  -----------------
       1        0.001611338839     0.079457390297    -0.040996865407
       2       -0.024391090044    -0.033750407435    -0.015000466915
       3       -0.008122348866     0.020418912478    -0.022378163710
       4        0.006516994652     0.012465666357    -0.007603231945
       5       -0.001875265508    -0.001849530616     0.001537250629
       6        0.000696667074    -0.032687103736     0.016319103590
       7       -0.000310716483    -0.005506023076    -0.000431907838
       8        0.003209836664    -0.000788583234     0.004900442728
       9       -0.012251902184    -0.055930782199     0.088812988179
      10        0.028397404272    -0.039539992627     0.018554723343
      11        0.003790144907     0.066730012838    -0.045107121347
      12        0.001437878531     0.001784710412     0.000331092452
      13        0.001097960388    -0.010865640296    -0.000638264246


*** tstop() called on localhost.localdomain at Mon Jan 21 15:44:14 2019
Module time:
	user time   =     190.67 seconds =       3.18 minutes
	system time =       6.59 seconds =       0.11 minutes
	total time  =          9 seconds =       0.15 minutes
Total time:
	user time   =     871.62 seconds =      14.53 minutes
	system time =      37.39 seconds =       0.62 minutes
	total time  =         34 seconds =       0.57 minutes

			-----------------------------------------
			 OPTKING 2.0: for geometry optimizations 
			  - R.A. King,  Bethel University        
			-----------------------------------------

	Internal coordinates to be generated automatically.
	Detected frag 1 with atoms:  1 2 3 4 5 6 7 8 9 10 11 12 13
	---Fragment 1 Bond Connectivity---
	 1 : 2 9 11 13
	 2 : 1
	 3 : 11
	 4 : 11
	 5 : 6
	 6 : 5 7 8 9
	 7 : 6
	 8 : 6
	 9 : 1 6 10
	 10 : 9
	 11 : 1 3 4 12
	 12 : 11
	 13 : 1

	---Fragment 1 Geometry and Gradient---
	 C           0.0754501154        0.1902900266       -3.2516465347
	 O          -1.9827327296       -0.0783402785       -4.5505536755
	 BR          3.0368430359        1.0912310004        1.2130508932
	 BR         -2.9617979374        1.4026853558        1.1829180930
	 H           1.8760786361        6.0052306820       -3.9342485412
	 C           2.3168588015        4.0353540573       -3.5480777576
	 H           2.6768357623        3.0141820268       -5.3056104448
	 H           3.9383411947        3.9123804917       -2.2891270610
	 O           0.1852019304        2.9599724153       -2.2636060114
	 H          -1.5122073562        2.2947759752       -3.3727345609
	 C          -0.0315112107       -0.2362678197       -0.3899348489
	 BR         -0.1829454075       -3.8722360537        0.3195839129
	 H           1.8886538525       -0.5308403904       -3.9895614881
	             0.0016113388        0.0794573903       -0.0409968654
	            -0.0243910900       -0.0337504074       -0.0150004669
	            -0.0081223489        0.0204189125       -0.0223781637
	             0.0065169947        0.0124656664       -0.0076032319
	            -0.0018752655       -0.0018495306        0.0015372506
	             0.0006966671       -0.0326871037        0.0163191036
	            -0.0003107165       -0.0055060231       -0.0004319078
	             0.0032098367       -0.0007885832        0.0049004427
	            -0.0122519022       -0.0559307822        0.0888129882
	             0.0283974043       -0.0395399926        0.0185547233
	             0.0037901449        0.0667300128       -0.0451071213
	             0.0014378785        0.0017847104        0.0003310925
	             0.0010979604       -0.0108656403       -0.0006382642

	Previous optimization step data not found.  Starting new optimization.

	---Fragment 1 Intrafragment Coordinates---
	 - Coordinate -           - BOHR/RAD -       - ANG/DEG -
	 H(2,10)          =         2.690787	       1.423903
	 R(1,2)           =         2.448558	       1.295721
	 R(1,9)           =         2.942688	       1.557203
	 R(1,11)          =         2.895304	       1.532129
	 R(1,13)          =         2.086206	       1.103973
	 R(3,11)          =         3.707643	       1.962000
	 R(4,11)          =         3.707643	       1.962000
	 R(5,6)           =         2.055196	       1.087563
	 R(6,7)           =         2.064291	       1.092376
	 R(6,8)           =         2.056522	       1.088265
	 R(6,9)           =         2.711139	       1.434673
	 R(9,10)          =         2.133975	       1.129251
	 R(11,12)         =         3.707643	       1.962000
	 B(1,9,6)         =         1.816854	     104.098072
	 B(1,9,10)        =         1.050003	      60.160756
	 B(1,11,3)        =         1.921978	     110.121205
	 B(1,11,4)        =         1.964237	     112.542518
	 B(1,11,12)       =         1.912544	     109.580719
	 B(2,1,9)         =         1.888856	     108.223462
	 B(2,1,11)        =         2.068156	     118.496630
	 B(2,1,13)        =         2.100193	     120.332193
	 B(3,11,4)        =         1.888495	     108.202812
	 B(3,11,12)       =         1.877782	     107.589010
	 B(4,11,12)       =         1.896568	     108.665348
	 B(5,6,7)         =         1.930045	     110.583410
	 B(5,6,8)         =         1.919249	     109.964844
	 B(5,6,9)         =         1.876096	     107.492384
	 B(6,9,10)        =         2.097639	     120.185863
	 B(7,6,8)         =         1.932780	     110.740125
	 B(7,6,9)         =         1.922251	     110.136852
	 B(8,6,9)         =         1.881974	     107.829190
	 B(9,1,11)        =         1.377778	      78.940871
	 B(9,1,13)        =         1.995105	     114.311075
	 B(11,1,13)       =         1.907937	     109.316739
	 D(1,9,6,5)       =         2.530899	     145.009817
	 D(1,9,6,7)       =         0.427038	      24.467447
	 D(1,9,6,8)       =        -1.683773	     -96.473095
	 D(2,1,9,6)       =        -1.992315	    -114.151214
	 D(2,1,9,10)      =         0.049276	       2.823294
	 D(2,1,11,3)      =        -2.894472	    -165.841006
	 D(2,1,11,4)      =        -0.785837	     -45.025115
	 D(2,1,11,12)     =         1.326471	      76.001183
	 D(3,11,1,9)      =        -1.064316	     -60.980810
	 D(3,11,1,13)     =         0.891949	      51.104937
	 D(4,11,1,9)      =         1.044319	      59.835081
	 D(4,11,1,13)     =         3.000584	     171.920828
	 D(5,6,9,10)      =         1.423971	      81.587542
	 D(6,9,1,11)      =         2.256157	     129.268278
	 D(6,9,1,13)      =         0.399951	      22.915512
	 D(7,6,9,10)      =        -0.679890	     -38.954828
	 D(8,6,9,10)      =        -2.790701	    -159.895371
	 D(9,1,11,12)     =        -3.126559	    -179.138621
	 D(10,9,1,11)     =        -1.985438	    -113.757214
	 D(10,9,1,13)     =         2.441541	     139.890020
	 D(12,11,1,13)    =        -1.170293	     -67.052874
	 R(3,6)           =         5.643987	       2.986669
	 R(4,6)           =         7.561579	       4.001415
	 R(6,12)          =         9.150837	       4.842414

	Current energy   :     -7990.1399283792

	Generating empirical Hessian (Schlegel '84) for each fragment.
	Taking PRFO optimization step.
	Maximizing along 1 lowest eigenvalue of Hessian.

 RFO min eigenvalues
 -0.126876 -0.000000 -0.000000 -0.000000 -0.000000 -0.000000 -0.000000 -0.000000
 -0.000000 -0.000000 -0.000000 -0.000000 -0.000000  0.000000  0.000000  0.000000
  0.000000  0.000000  0.000000  0.000000  0.000000  0.000000  0.000000  0.000000
  0.000000  0.000375  0.003440  0.010812  0.035458  0.038699  0.039852  0.047902
  0.057734  0.071568  0.073423  0.074895  0.081021  0.096791  0.104047  0.137650
  0.152250  0.160000  0.160000  0.160759  0.192363  0.243384  0.270056  0.289151
  0.302598  0.332525  0.345408  0.350172  0.350961  0.368282  0.387271  0.393495
  0.399339  0.662947

 RFO max eigenvalues
 -0.000000  0.000000
	Change in coordinate exceeds step limit of    0.50000.
	Scaling displacements by    0.61377
	|RFO target step|  :        0.5000000000
	RFO gradient       :       -0.1557458757
	RFO hessian        :        0.0814605223
	Projected Delta(E) :       -0.0541522981

	Back-transformation to cartesian coordinates...
	Could not converge backtransformation.
	Using first guess instead.

	--- Internal Coordinate Step in ANG or DEG, aJ/ANG or AJ/DEG ---
	 ---------------------------------------------------------------------------
	   Coordinate                Previous        Force       Change         New 
	   ----------                --------       ------       ------       ------
	    1 H(2,10)         =      1.423903    -0.039263     0.014802     1.438704
	    2 R(1,2)          =      1.295721    -0.245509    -0.010655     1.285067
	    3 R(1,9)          =      1.557203     0.444929     0.053679     1.610883
	    4 R(1,11)         =      1.532129     0.035628     0.009679     1.541808
	    5 R(1,13)         =      1.103973    -0.040366    -0.002211     1.101762
	    6 R(3,11)         =      1.962000    -0.027719    -0.000277     1.961723
	    7 R(4,11)         =      1.962000    -0.199419    -0.013405     1.948595
	    8 R(5,6)          =      1.087563     0.013889     0.005397     1.092959
	    9 R(6,7)          =      1.092376    -0.024483     0.001544     1.093919
	   10 R(6,8)          =      1.088265    -0.046399    -0.000844     1.087421
	   11 R(6,9)          =      1.434673    -0.483469    -0.027352     1.407321
	   12 R(9,10)         =      1.129251     0.139359     0.016222     1.145473
	   13 R(11,12)        =      1.962000    -0.212133    -0.011302     1.950698
	   14 B(1,9,6)        =    104.098072    -0.000182     0.172237   104.270309
	   15 B(1,9,10)       =     60.160756     0.002831     6.425561    66.586317
	   16 B(1,11,3)       =    110.121205    -0.002630    -2.995567   107.125638
	   17 B(1,11,4)       =    112.542518    -0.001170    -0.961427   111.581091
	   18 B(1,11,12)      =    109.580719    -0.000667    -0.778839   108.801880
	   19 B(2,1,9)        =    108.223462    -0.003348    -6.258981   101.964481
	   20 B(2,1,11)       =    118.496630     0.001160     2.730673   121.227303
	   21 B(2,1,13)       =    120.332193     0.001203     1.168973   121.501166
	   22 B(3,11,4)       =    108.202812     0.001466     1.266096   109.468907
	   23 B(3,11,12)      =    107.589010     0.001311     0.917082   108.506092
	   24 B(4,11,12)      =    108.665348     0.001879     2.559739   111.225087
	   25 B(5,6,7)        =    110.583410    -0.000325    -0.688202   109.895208
	   26 B(5,6,8)        =    109.964844    -0.000159    -0.011447   109.953397
	   27 B(5,6,9)        =    107.492384     0.000168     0.014232   107.506616
	   28 B(6,9,10)       =    120.185863     0.000549     1.431688   121.617551
	   29 B(7,6,8)        =    110.740125    -0.000147    -0.258158   110.481967
	   30 B(7,6,9)        =    110.136852     0.000326     0.788763   110.925615
	   31 B(8,6,9)        =    107.829190     0.000159     0.183682   108.012872
	   32 B(9,1,11)       =     78.940871     0.005725     9.211685    88.152556
	   33 B(9,1,13)       =    114.311075    -0.000896    -1.052263   113.258812
	   34 B(11,1,13)      =    109.316739    -0.002609    -3.731718   105.585020
	   35 D(1,9,6,5)      =    145.009817     0.000376     3.977430   148.987247
	   36 D(1,9,6,7)      =     24.467447     0.000400     4.345257    28.812704
	   37 D(1,9,6,8)      =    -96.473095     0.000374     4.069890   -92.403206
	   38 D(2,1,9,6)      =   -114.151214     0.000069    -0.952558  -115.103772
	   39 D(2,1,9,10)     =      2.823294     0.000230     0.715157     3.538451
	   40 D(2,1,11,3)     =   -165.841006     0.000065     0.153149  -165.687857
	   41 D(2,1,11,4)     =    -45.025115    -0.000111    -0.865625   -45.890741
	   42 D(2,1,11,12)    =     76.001183     0.000151     1.197044    77.198228
	   43 D(3,11,1,9)     =    -60.980810    -0.000156    -1.821766   -62.802576
	   44 D(3,11,1,13)    =     51.104937     0.000059    -0.255881    50.849056
	   45 D(4,11,1,9)     =     59.835081    -0.000332    -2.840540    56.994540
	   46 D(4,11,1,13)    =    171.920828    -0.000116    -1.274655   170.646172
	   47 D(5,6,9,10)     =     81.587542    -0.000352    -3.640402    77.947140
	   48 D(6,9,1,11)     =    129.268278    -0.000607    -5.931798   123.336480
	   49 D(6,9,1,13)     =     22.915512    -0.000507    -5.762992    17.152520
	   50 D(7,6,9,10)     =    -38.954828    -0.000328    -3.272575   -42.227403
	   51 D(8,6,9,10)     =   -159.895371    -0.000354    -3.547943  -163.443313
	   52 D(9,1,11,12)    =   -179.138621    -0.000070    -0.777871  -179.916491
	   53 D(10,9,1,11)    =   -113.757214    -0.000447    -4.264083  -118.021297
	   54 D(10,9,1,13)    =    139.890020    -0.000347    -4.095277   135.794743
	   55 D(12,11,1,13)   =    -67.052874     0.000146     0.788014   -66.264859
	   56 R(3,6)          =      2.986669     0.358733     0.081415     3.068084
	   57 R(4,6)          =      4.001415     0.335486     0.088677     4.090092
	   58 R(6,12)         =      4.842414     0.241142     0.066978     4.909392
	 ---------------------------------------------------------------------------
	Successfully symmetrized geometry.

  ==> Convergence Check <==

  Measures of convergence in internal coordinates in au.
  Criteria marked as inactive (o), active & met (*), and active & unmet ( ).
  --------------------------------------------------------------------------------------------- ~
   Step     Total Energy     Delta E     MAX Force     RMS Force      MAX Disp      RMS Disp    ~
  --------------------------------------------------------------------------------------------- ~
    Convergence Criteria    1.00e-06 *    3.00e-04 *             o    1.20e-03 *             o  ~
  --------------------------------------------------------------------------------------------- ~
      1   -7990.13992838   -7.99e+03      7.52e-02      2.41e-02 o    1.68e-01      6.06e-02 o  ~
  ---------------------------------------------------------------------------------------------

	Writing optimization data to binary file.
	Structure for next step:
	Cartesian Geometry (in Angstrom)
	    C     0.0298395256   0.0974896654  -1.6506015662
	    O    -1.0205127790   0.0048567368  -2.3851598476
	   BR     1.6332233837   0.5027590321   0.6454264690
	   BR    -1.5546839455   0.6676830880   0.7049179880
	    H     1.0362091968   3.1882379193  -2.1964887222
	    C     1.2193721765   2.1495301493  -1.9099618534
	    H     1.4660967987   1.5569800090  -2.7957784418
	    H     2.0269383361   2.1019160524  -1.1832889729
	    O     0.0497622593   1.6680363347  -1.2929298347
	    H    -0.8655821726   1.3521448631  -1.9048663486
	    C    -0.0243365787  -0.1953554094  -0.1378295124
	   BR    -0.0686812943  -2.1274382537   0.1273375014
	    H     1.0059105568  -0.2835897744  -1.9911058388
			--------------------------
			 OPTKING Finished Execution 
			--------------------------

    Structure for next step:
    Molecular point group: c1
    Full point group: C1

    Geometry (in Angstrom), charge = 0, multiplicity = 1:

    C            0.014811212666     0.149684617207    -1.661107012868
    O           -1.035541091952     0.057051688607    -2.395665294268
    BR           1.618195070672     0.554953983916     0.634921022341
    BR          -1.569712258463     0.719878039805     0.694412541356
    H            1.021180883802     3.240432871106    -2.206994168894
    C            1.204343863546     2.201725101079    -1.920467300049
    H            1.451068485731     1.609174960840    -2.806283888453
    H            2.011910023110     2.154111004173    -1.193794419506
    O            0.034733946304     1.720231286480    -1.303435281351
    H           -0.880610485560     1.404339814936    -1.915371795293
    C           -0.039364891716    -0.143160457546    -0.148334959081
    BR          -0.083709607315    -2.075243301846     0.116832054712
    H            0.990882243865    -0.231394822598    -2.001611285469

gradient() will perform analytic gradient computation.

*** tstart() called on localhost.localdomain
*** at Mon Jan 21 15:44:14 2019

   => Loading Basis Set <=

    Name: ANONYMOUS49BEEDDC
    Role: ORBITAL
    Keyword: BASIS
    atoms 1, 6, 11       entry C          line   119 file /root/psi4conda/share/psi4/basis/6-311ppgss.gbs 
    atoms 2, 9           entry O          line   161 file /root/psi4conda/share/psi4/basis/6-311ppgss.gbs 
    atoms 3-4, 12        entry BR         line  1545 file /root/psi4conda/share/psi4/basis/def2-tzvpp.gbs 
    atoms 5, 7-8, 10, 13 entry H          line    42 file /root/psi4conda/share/psi4/basis/6-311ppgss.gbs 


         ---------------------------------------------------------
                                   SCF
            by Justin Turney, Rob Parrish, Andy Simmonett
                             and Daniel Smith
                              RKS Reference
                       32 Threads,    500 MiB Core
         ---------------------------------------------------------

  ==> Geometry <==

    Molecular point group: c1
    Full point group: C1

    Geometry (in Angstrom), charge = 0, multiplicity = 1:

       Center              X                  Y                   Z               Mass       
    ------------   -----------------  -----------------  -----------------  -----------------
         C            0.014811212666     0.149684617207    -1.661107012868    12.000000000000
         O           -1.035541091952     0.057051688607    -2.395665294268    15.994914619560
         BR           1.618195070672     0.554953983916     0.634921022341    78.918337087000
         BR          -1.569712258463     0.719878039805     0.694412541356    78.918337087000
         H            1.021180883802     3.240432871106    -2.206994168894     1.007825032070
         C            1.204343863546     2.201725101079    -1.920467300049    12.000000000000
         H            1.451068485731     1.609174960840    -2.806283888453     1.007825032070
         H            2.011910023110     2.154111004173    -1.193794419506     1.007825032070
         O            0.034733946304     1.720231286480    -1.303435281351    15.994914619560
         H           -0.880610485560     1.404339814936    -1.915371795293     1.007825032070
         C           -0.039364891716    -0.143160457546    -0.148334959081    12.000000000000
         BR          -0.083709607315    -2.075243301846     0.116832054712    78.918337087000
         H            0.990882243865    -0.231394822598    -2.001611285469     1.007825032070

  Running in c1 symmetry.

  Rotational constants: A =      0.02377  B =      0.02026  C =      0.01702 [cm^-1]
  Rotational constants: A =    712.56808  B =    607.39981  C =    510.20604 [MHz]
  Nuclear repulsion = 1498.708198965957536

  Charge       = 0
  Multiplicity = 1
  Electrons    = 144
  Nalpha       = 72
  Nbeta        = 72

  ==> Algorithm <==

  SCF Algorithm Type is DF.
  DIIS enabled.
  MOM disabled.
  Fractional occupation disabled.
  Guess Type is READ.
  Energy threshold   = 1.00e-08
  Density threshold  = 1.00e-08
  Integral threshold = 0.00e+00

  ==> Primary Basis <==

  Basis Set: ANONYMOUS49BEEDDC
    Blend: 6-311PPGSS + DEF2-TZVPP
    Number of shells: 123
    Number of basis function: 289
    Number of Cartesian functions: 315
    Spherical Harmonics?: true
    Max angular momentum: 3

  ==> DFT Potential <==

   => Composite Functional: M06-2X <= 

    Hybrid M06-2X Meta-GGA XC Functional

    Y. Zhao and D. G. Truhlar,  Theor. Chem. Acc., 120, 215, 2008


    Deriv               =              1
    GGA                 =           TRUE
    Meta                =           TRUE

    Exchange Hybrid     =           TRUE
    MP2 Hybrid          =          FALSE

   => Exchange Functionals <=

    1.0000   XC_HYB_MGGA_X_M06_2X

   => Exact (HF) Exchange <=

    0.5400               HF 

   => Correlation Functionals <=

    1.0000   XC_MGGA_C_M06_2X

   => Molecular Quadrature <=

    Radial Scheme       =       TREUTLER
    Pruning Scheme      =           FLAT
    Nuclear Scheme      =       TREUTLER

    BS radius alpha     =              1
    Pruning alpha       =              1
    Radial Points       =             75
    Spherical Points    =            302
    Total Points        =         294004
    Total Blocks        =           2268
    Max Points          =            256
    Max Functions       =            255

   => Loading Basis Set <=

    Name: (ANONYMOUS49BEEDDC AUX)
    Role: JKFIT
    Keyword: DF_BASIS_SCF
    atoms 1, 6, 11       entry C          line   162 file /root/psi4conda/share/psi4/basis/aug-cc-pvtz-jkfit.gbs 
    atoms 2, 9           entry O          line   286 file /root/psi4conda/share/psi4/basis/aug-cc-pvtz-jkfit.gbs 
    atoms 3-4, 12        entry BR         line  3129 file /root/psi4conda/share/psi4/basis/def2-tzvpp-jkfit.gbs 
    atoms 5, 7-8, 10, 13 entry H          line    70 file /root/psi4conda/share/psi4/basis/aug-cc-pvtz-jkfit.gbs 

  Reading orbitals from file 180, no projection.

  ==> Pre-Iterations <==

   -------------------------------------------------------
    Irrep   Nso     Nmo     Nalpha   Nbeta   Ndocc  Nsocc
   -------------------------------------------------------
     A        289     289       0       0       0       0
   -------------------------------------------------------
    Total     289     289      72      72      72       0
   -------------------------------------------------------

  ==> Integral Setup <==

  ==> DiskDFJK: Density-Fitted J/K Matrices <==

    J tasked:                  Yes
    K tasked:                  Yes
    wK tasked:                  No
    OpenMP threads:             32
    Integrals threads:          32
    Memory (MB):               375
    Algorithm:                Disk
    Integral Cache:           NONE
    Schwarz Cutoff:          1E-12
    Fitting Condition:       1E-12

   => Auxiliary Basis Set <=

  Basis Set: (ANONYMOUS49BEEDDC AUX)
    Blend: AUG-CC-PVTZ-JKFIT + DEF2-TZVPP-JKFIT
    Number of shells: 400
    Number of basis function: 1548
    Number of Cartesian functions: 2043
    Spherical Harmonics?: true
    Max angular momentum: 5

  Minimum eigenvalue in the overlap matrix is 4.0892072130E-05.
  Using Symmetric Orthogonalization.

  SCF Guess: Orbitals guess was supplied from a previous computation.

  ==> Iterations <==

                           Total Energy        Delta E     RMS |[F,P]|

   @DF-RKS iter   0: -7990.25098246072139   -7.99025e+03   9.44186e-03 
   @DF-RKS iter   1: -7990.17957443173873    7.14080e-02   2.65496e-03 
   @DF-RKS iter   2: -7990.15463323505082    2.49412e-02   5.06441e-03 DIIS
   @DF-RKS iter   3: -7990.19377748533861   -3.91443e-02   2.96478e-04 DIIS
   @DF-RKS iter   4: -7990.19391260626708   -1.35121e-04   1.10022e-04 DIIS
   @DF-RKS iter   5: -7990.19393411831425   -2.15120e-05   6.02305e-05 DIIS
   @DF-RKS iter   6: -7990.19393868332463   -4.56501e-06   2.80546e-05 DIIS
   @DF-RKS iter   7: -7990.19393964043866   -9.57114e-07   5.89015e-06 DIIS
   @DF-RKS iter   8: -7990.19393972044963   -8.00110e-08   2.92340e-06 DIIS
   @DF-RKS iter   9: -7990.19393973879778   -1.83481e-08   1.02636e-06 DIIS
   @DF-RKS iter  10: -7990.19393974058312   -1.78534e-09   3.00606e-07 DIIS
   @DF-RKS iter  11: -7990.19393974082777   -2.44654e-10   6.44647e-08 DIIS
   @DF-RKS iter  12: -7990.19393974083323   -5.45697e-12   1.92645e-08 DIIS
   @DF-RKS iter  13: -7990.19393974082686    6.36646e-12   6.38872e-09 DIIS

  ==> Post-Iterations <==

    Orbital Energies [Eh]
    ---------------------

    Doubly Occupied:                                                      

       1A   -485.396353     2A   -485.390804     3A   -485.390621  
       4A    -63.382006     5A    -63.376195     6A    -63.376048  
       7A    -57.200435     8A    -57.197802     9A    -57.197672  
      10A    -57.194759    11A    -57.194495    12A    -57.191939  
      13A    -57.191853    14A    -57.191835    15A    -57.191773  
      16A    -19.719329    17A    -19.616819    18A    -10.711273  
      19A    -10.697826    20A    -10.620993    21A     -9.047501  
      22A     -9.041558    23A     -9.041422    24A     -6.871909  
      25A     -6.866359    26A     -6.865849    27A     -6.862327  
      28A     -6.861952    29A     -6.856119    30A     -6.856078  
      31A     -6.855905    32A     -6.855826    33A     -2.905766  
      34A     -2.902414    35A     -2.902041    36A     -2.900211  
      37A     -2.899678    38A     -2.896563    39A     -2.896313  
      40A     -2.896242    41A     -2.896046    42A     -2.893120  
      43A     -2.893098    44A     -2.886974    45A     -2.886964  
      46A     -2.886749    47A     -2.886731    48A     -1.272423  
      49A     -1.147807    50A     -0.983875    51A     -0.878583  
      52A     -0.872465    53A     -0.845093    54A     -0.800003  
      55A     -0.678784    56A     -0.664576    57A     -0.611293  
      58A     -0.587459    59A     -0.546701    60A     -0.528391  
      61A     -0.504754    62A     -0.494923    63A     -0.473625  
      64A     -0.439475    65A     -0.392404    66A     -0.388407  
      67A     -0.382715    68A     -0.375851    69A     -0.353069  
      70A     -0.348939    71A     -0.341451    72A     -0.339111  

    Virtual:                                                              

      73A     -0.037277    74A     -0.008013    75A      0.003775  
      76A      0.009503    77A      0.015273    78A      0.027383  
      79A      0.034459    80A      0.049644    81A      0.055189  
      82A      0.069397    83A      0.075745    84A      0.083272  
      85A      0.089166    86A      0.110633    87A      0.116268  
      88A      0.119416    89A      0.124772    90A      0.129423  
      91A      0.135120    92A      0.146362    93A      0.157201  
      94A      0.178169    95A      0.182983    96A      0.192730  
      97A      0.204479    98A      0.221964    99A      0.232120  
     100A      0.237099   101A      0.251004   102A      0.262000  
     103A      0.276819   104A      0.278704   105A      0.284044  
     106A      0.285980   107A      0.300106   108A      0.304911  
     109A      0.319406   110A      0.323160   111A      0.327308  
     112A      0.329146   113A      0.341922   114A      0.349125  
     115A      0.367532   116A      0.372211   117A      0.373624  
     118A      0.384451   119A      0.395855   120A      0.411537  
     121A      0.423719   122A      0.429478   123A      0.439384  
     124A      0.442207   125A      0.461244   126A      0.469969  
     127A      0.485073   128A      0.500453   129A      0.513196  
     130A      0.522947   131A      0.537594   132A      0.554623  
     133A      0.574634   134A      0.579184   135A      0.587749  
     136A      0.603458   137A      0.621375   138A      0.633465  
     139A      0.642266   140A      0.656746   141A      0.689896  
     142A      0.715823   143A      0.747617   144A      0.782715  
     145A      0.801257   146A      0.834263   147A      0.857114  
     148A      0.912039   149A      0.942438   150A      0.948066  
     151A      0.987668   152A      1.027574   153A      1.062075  
     154A      1.075045   155A      1.127516   156A      1.151615  
     157A      1.156414   158A      1.183524   159A      1.218798  
     160A      1.222569   161A      1.234694   162A      1.280762  
     163A      1.317044   164A      1.323047   165A      1.346154  
     166A      1.356976   167A      1.365320   168A      1.383415  
     169A      1.390017   170A      1.396515   171A      1.400728  
     172A      1.405675   173A      1.412068   174A      1.416176  
     175A      1.427808   176A      1.443714   177A      1.450310  
     178A      1.458380   179A      1.470732   180A      1.479398  
     181A      1.501892   182A      1.518581   183A      1.525249  
     184A      1.530316   185A      1.533942   186A      1.547845  
     187A      1.560882   188A      1.570059   189A      1.579838  
     190A      1.584497   191A      1.590861   192A      1.596597  
     193A      1.600192   194A      1.612229   195A      1.618688  
     196A      1.640789   197A      1.666342   198A      1.680035  
     199A      1.687599   200A      1.695071   201A      1.708735  
     202A      1.723956   203A      1.733735   204A      1.749411  
     205A      1.763346   206A      1.769252   207A      1.773324  
     208A      1.778717   209A      1.803696   210A      1.810506  
     211A      1.833123   212A      1.843888   213A      1.857811  
     214A      1.867983   215A      1.885508   216A      1.919535  
     217A      1.958619   218A      1.964853   219A      2.000601  
     220A      2.020267   221A      2.048066   222A      2.064357  
     223A      2.088806   224A      2.113990   225A      2.162047  
     226A      2.180521   227A      2.207432   228A      2.225535  
     229A      2.272047   230A      2.338264   231A      2.395194  
     232A      2.456730   233A      2.478192   234A      2.526855  
     235A      2.539489   236A      2.597432   237A      2.641872  
     238A      2.674138   239A      2.741816   240A      2.823826  
     241A      2.907265   242A      2.928740   243A      2.968023  
     244A      3.034885   245A      3.115956   246A      3.142022  
     247A      3.216819   248A      3.280550   249A      3.302540  
     250A      3.340813   251A      3.395636   252A      3.483778  
     253A      3.533643   254A      3.698861   255A      3.754468  
     256A      3.819878   257A      3.852616   258A      3.955034  
     259A      4.073745   260A      4.084322   261A      4.093917  
     262A      4.103587   263A      4.105721   264A      4.121671  
     265A      4.142294   266A      4.160900   267A      4.181373  
     268A      4.191658   269A      4.201756   270A      4.211981  
     271A      4.258488   272A      4.270256   273A      4.416420  
     274A      4.474628   275A      4.496741   276A      5.239729  
     277A      5.257297   278A      5.314691   279A      5.348317  
     280A      5.644002   281A      5.835651   282A      7.618837  
     283A      7.658431   284A      7.674536   285A     23.619509  
     286A     23.872360   287A     23.983171   288A     49.991180  
     289A     50.127189  

    Final Occupation by Irrep:
              A 
    DOCC [    72 ]

  Energy converged.

  @DF-RKS Final Energy: -7990.19393974082686

   => Energetics <=

    Nuclear Repulsion Energy =           1498.7081989659575356
    One-Electron Energy =              -14102.5802558306586434
    Two-Electron Energy =                4759.7432937203248002
    DFT Exchange-Correlation Energy =    -146.0651765964512947
    Empirical Dispersion Energy =           0.0000000000000000
    VV10 Nonlocal Energy =                  0.0000000000000000
    Total Energy =                      -7990.1939397408268633



Properties will be evaluated at   0.000000,   0.000000,   0.000000 [a0]

Properties computed using the SCF density matrix

  Nuclear Dipole Moment: [e a0]
     X:     4.5992      Y:    14.4187      Z:   -21.6950

  Electronic Dipole Moment: [e a0]
     X:    -3.4976      Y:   -13.3568      Z:    21.4003

  Dipole Moment: [e a0]
     X:     1.1016      Y:     1.0619      Z:    -0.2948     Total:     1.5582

  Dipole Moment: [D]
     X:     2.7999      Y:     2.6990      Z:    -0.7492     Total:     3.9605


*** tstop() called on localhost.localdomain at Mon Jan 21 15:44:36 2019
Module time:
	user time   =     587.79 seconds =       9.80 minutes
	system time =      23.29 seconds =       0.39 minutes
	total time  =         22 seconds =       0.37 minutes
Total time:
	user time   =    1461.35 seconds =      24.36 minutes
	system time =      60.68 seconds =       1.01 minutes
	total time  =         56 seconds =       0.93 minutes

*** tstart() called on localhost.localdomain
*** at Mon Jan 21 15:44:36 2019


         ------------------------------------------------------------
                                   SCF GRAD                          
                          Rob Parrish, Justin Turney,                
                       Andy Simmonett, and Alex Sokolov              
         ------------------------------------------------------------

  ==> Geometry <==

    Molecular point group: c1
    Full point group: C1

    Geometry (in Angstrom), charge = 0, multiplicity = 1:

       Center              X                  Y                   Z               Mass       
    ------------   -----------------  -----------------  -----------------  -----------------
         C            0.014811212666     0.149684617207    -1.661107012868    12.000000000000
         O           -1.035541091952     0.057051688607    -2.395665294268    15.994914619560
         BR           1.618195070672     0.554953983916     0.634921022341    78.918337087000
         BR          -1.569712258463     0.719878039805     0.694412541356    78.918337087000
         H            1.021180883802     3.240432871106    -2.206994168894     1.007825032070
         C            1.204343863546     2.201725101079    -1.920467300049    12.000000000000
         H            1.451068485731     1.609174960840    -2.806283888453     1.007825032070
         H            2.011910023110     2.154111004173    -1.193794419506     1.007825032070
         O            0.034733946304     1.720231286480    -1.303435281351    15.994914619560
         H           -0.880610485560     1.404339814936    -1.915371795293     1.007825032070
         C           -0.039364891716    -0.143160457546    -0.148334959081    12.000000000000
         BR          -0.083709607315    -2.075243301846     0.116832054712    78.918337087000
         H            0.990882243865    -0.231394822598    -2.001611285469     1.007825032070

  Nuclear repulsion = 1498.708198965957763

  ==> Basis Set <==

  Basis Set: ANONYMOUS49BEEDDC
    Blend: 6-311PPGSS + DEF2-TZVPP
    Number of shells: 123
    Number of basis function: 289
    Number of Cartesian functions: 315
    Spherical Harmonics?: true
    Max angular momentum: 3

  ==> DFJKGrad: Density-Fitted SCF Gradients <==

    Gradient:                    1
    J tasked:                  Yes
    K tasked:                  Yes
    wK tasked:                  No
    OpenMP threads:             32
    Integrals threads:          32
    Memory (MB):               375
    Schwarz Cutoff:          0E+00
    Fitting Condition:       1E-12

   => Auxiliary Basis Set <=

  Basis Set: (ANONYMOUS49BEEDDC AUX)
    Blend: AUG-CC-PVTZ-JKFIT + DEF2-TZVPP-JKFIT
    Number of shells: 400
    Number of basis function: 1548
    Number of Cartesian functions: 2043
    Spherical Harmonics?: true
    Max angular momentum: 5

  ==> DFT Potential <==

   => Composite Functional: M06-2X <= 

    Hybrid M06-2X Meta-GGA XC Functional

    Y. Zhao and D. G. Truhlar,  Theor. Chem. Acc., 120, 215, 2008


    Deriv               =              1
    GGA                 =           TRUE
    Meta                =           TRUE

    Exchange Hybrid     =           TRUE
    MP2 Hybrid          =          FALSE

   => Exchange Functionals <=

    1.0000   XC_HYB_MGGA_X_M06_2X

   => Exact (HF) Exchange <=

    0.5400               HF 

   => Correlation Functionals <=

    1.0000   XC_MGGA_C_M06_2X

   => Molecular Quadrature <=

    Radial Scheme       =       TREUTLER
    Pruning Scheme      =           FLAT
    Nuclear Scheme      =       TREUTLER

    BS radius alpha     =              1
    Pruning alpha       =              1
    Radial Points       =             75
    Spherical Points    =            302
    Total Points        =         294004
    Total Blocks        =           2268
    Max Points          =            256
    Max Functions       =            255


  -Total Gradient:
     Atom            X                  Y                   Z
    ------   -----------------  -----------------  -----------------
       1        0.013154561276     0.033930215632    -0.033679487652
       2       -0.012981679183    -0.019301876726    -0.010826536149
       3       -0.001806616061     0.013688188417    -0.016418471167
       4        0.002123264912     0.009975344963    -0.004102303183
       5       -0.003565636731     0.000855542003     0.000605839584
       6       -0.008386776869    -0.037240861647     0.022839225273
       7       -0.000368611792    -0.004650622366    -0.000085564271
       8        0.001468376514    -0.001968212166     0.005015956840
       9        0.007941582602     0.006310805127     0.043715674591
      10       -0.004153045527    -0.017008526109     0.007080971268
      11        0.004414404205     0.027649841515    -0.021551460441
      12        0.002205728810    -0.002212885865     0.000747463859
      13        0.000017636352    -0.009883289845     0.005393129285


*** tstop() called on localhost.localdomain at Mon Jan 21 15:44:45 2019
Module time:
	user time   =     187.09 seconds =       3.12 minutes
	system time =       6.19 seconds =       0.10 minutes
	total time  =          9 seconds =       0.15 minutes
Total time:
	user time   =    1648.50 seconds =      27.48 minutes
	system time =      66.88 seconds =       1.11 minutes
	total time  =         65 seconds =       1.08 minutes

			-----------------------------------------
			 OPTKING 2.0: for geometry optimizations 
			  - R.A. King,  Bethel University        
			-----------------------------------------

	Previous internal coordinate definitions found.
	---Fragment 1 Geometry and Gradient---
	 C           0.0279891356        0.2828629328       -3.1390373317
	 O          -1.9568890631        0.1078120669       -4.5271513122
	 BR          3.0579455132        1.0487110460        1.1998268482
	 BR         -2.9663262759        1.3603723443        1.3122495264
	 H           1.9297522025        6.1235306784       -4.1706145561
	 C           2.2758800719        4.1606574609       -3.6291572443
	 H           2.7421220381        3.0408999759       -5.3031080003
	 H           3.8019589477        4.0706798577       -2.2559445118
	 O           0.0656376460        3.2507660167       -2.4631357137
	 H          -1.6641126475        2.6538176477       -3.6195281358
	 C          -0.0743888646       -0.2705340578       -0.2803124486
	 BR         -0.1581882325       -3.9216414996        0.2207805869
	 H           1.8724960708       -0.4372728433       -3.7824971540
	             0.0131545613        0.0339302156       -0.0336794877
	            -0.0129816792       -0.0193018767       -0.0108265361
	            -0.0018066161        0.0136881884       -0.0164184712
	             0.0021232649        0.0099753450       -0.0041023032
	            -0.0035656367        0.0008555420        0.0006058396
	            -0.0083867769       -0.0372408616        0.0228392253
	            -0.0003686118       -0.0046506224       -0.0000855643
	             0.0014683765       -0.0019682122        0.0050159568
	             0.0079415826        0.0063108051        0.0437156746
	            -0.0041530455       -0.0170085261        0.0070809713
	             0.0044144042        0.0276498415       -0.0215514604
	             0.0022057288       -0.0022128859        0.0007474639
	             0.0000176364       -0.0098832898        0.0053931293

	---Fragment 1 Intrafragment Coordinates---
	 - Coordinate -           - BOHR/RAD -       - ANG/DEG -
	 H(2,10)          =         2.718757	       1.438704
	 R(1,2)           =         2.428424	       1.285067
	 R(1,9)           =         3.044127	       1.610883
	 R(1,11)          =         2.913595	       1.541808
	 R(1,13)          =         2.082028	       1.101762
	 R(3,11)          =         3.707120	       1.961723
	 R(4,11)          =         3.682311	       1.948595
	 R(5,6)           =         2.065394	       1.092959
	 R(6,7)           =         2.067208	       1.093919
	 R(6,8)           =         2.054927	       1.087421
	 R(6,9)           =         2.659451	       1.407321
	 R(9,10)          =         2.164631	       1.145473
	 R(11,12)         =         3.686286	       1.950698
	 B(1,9,6)         =         1.819860	     104.270309
	 B(1,9,10)        =         1.162150	      66.586317
	 B(1,11,3)        =         1.869695	     107.125638
	 B(1,11,4)        =         1.947457	     111.581091
	 B(1,11,12)       =         1.898951	     108.801880
	 B(2,1,9)         =         1.779616	     101.964481
	 B(2,1,11)        =         2.115816	     121.227303
	 B(2,1,13)        =         2.120595	     121.501166
	 B(3,11,4)        =         1.910593	     109.468907
	 B(3,11,12)       =         1.893789	     108.506092
	 B(4,11,12)       =         1.941244	     111.225087
	 B(5,6,7)         =         1.918033	     109.895208
	 B(5,6,8)         =         1.919049	     109.953397
	 B(5,6,9)         =         1.876344	     107.506616
	 B(6,9,10)        =         2.122627	     121.617551
	 B(7,6,8)         =         1.928274	     110.481967
	 B(7,6,9)         =         1.936017	     110.925615
	 B(8,6,9)         =         1.885180	     108.012872
	 B(9,1,11)        =         1.538552	      88.152556
	 B(9,1,13)        =         1.976739	     113.258812
	 B(11,1,13)       =         1.842806	     105.585020
	 D(1,9,6,5)       =         2.600318	     148.987247
	 D(1,9,6,7)       =         0.502877	      28.812704
	 D(1,9,6,8)       =        -1.612740	     -92.403206
	 D(2,1,9,6)       =        -2.008940	    -115.103772
	 D(2,1,9,10)      =         0.061758	       3.538451
	 D(2,1,11,3)      =        -2.891799	    -165.687857
	 D(2,1,11,4)      =        -0.800945	     -45.890741
	 D(2,1,11,12)     =         1.347363	      77.198228
	 D(3,11,1,9)      =        -1.096112	     -62.802576
	 D(3,11,1,13)     =         0.887483	      50.849056
	 D(4,11,1,9)      =         0.994742	      56.994540
	 D(4,11,1,13)     =         2.978338	     170.646172
	 D(5,6,9,10)      =         1.360434	      77.947140
	 D(6,9,1,11)      =         2.152628	     123.336480
	 D(6,9,1,13)      =         0.299368	      17.152520
	 D(7,6,9,10)      =        -0.737007	     -42.227403
	 D(8,6,9,10)      =        -2.852624	    -163.443313
	 D(9,1,11,12)     =        -3.140135	    -179.916491
	 D(10,9,1,11)     =        -2.059860	    -118.021297
	 D(10,9,1,13)     =         2.370065	     135.794743
	 D(12,11,1,13)    =        -1.156540	     -66.264859
	 R(3,6)           =         5.797838	       3.068084
	 R(4,6)           =         7.729154	       4.090092
	 R(6,12)          =         9.277406	       4.909392

	Current energy   :     -7990.1939397408

	Energy change for the previous step:
		Projected    :        -0.0541522981
		Actual       :        -0.0540113616

	Performing Bofill update.
	Previous computed or guess Hessian on step 1.
	Steps to be used in Hessian update: 1
	Taking PRFO optimization step.
	Maximizing along 1 lowest eigenvalue of Hessian.

 RFO min eigenvalues
 -0.040134 -0.000000 -0.000000 -0.000000 -0.000000 -0.000000 -0.000000 -0.000000
 -0.000000 -0.000000  0.000000  0.000000  0.000000  0.000000  0.000000  0.000000
  0.000000  0.000000  0.000000  0.000000  0.000000  0.000000  0.000000  0.000000
  0.000000  0.000392  0.003979  0.011366  0.035338  0.040194  0.042366  0.049920
  0.058712  0.071657  0.073324  0.074901  0.080944  0.098161  0.103690  0.139148
  0.156730  0.159969  0.160017  0.161560  0.195537  0.247682  0.259179  0.286470
  0.313503  0.332621  0.345440  0.350185  0.350935  0.364828  0.382627  0.392608
  0.434274  0.659408

 RFO max eigenvalues
 -0.000000  0.000000
	Change in coordinate exceeds step limit of    0.50000.
	Scaling displacements by    0.77416
	|RFO target step|  :        0.5000000000
	RFO gradient       :       -0.0621399765
	RFO hessian        :        0.0604692978
	Projected Delta(E) :       -0.0188090608

	Back-transformation to cartesian coordinates...
	Could not converge backtransformation.
	Using first guess instead.

	--- Internal Coordinate Step in ANG or DEG, aJ/ANG or AJ/DEG ---
	 ---------------------------------------------------------------------------
	   Coordinate                Previous        Force       Change         New 
	   ----------                --------       ------       ------       ------
	    1 H(2,10)         =      1.438704    -0.060731    -0.021167     1.417538
	    2 R(1,2)          =      1.285067    -0.128305    -0.007323     1.277743
	    3 R(1,9)          =      1.610883     0.117985     0.014236     1.625118
	    4 R(1,11)         =      1.541808    -0.021849    -0.002437     1.539372
	    5 R(1,13)         =      1.101762    -0.014287     0.000405     1.102167
	    6 R(3,11)         =      1.961723    -0.032474    -0.004140     1.957583
	    7 R(4,11)         =      1.948595    -0.131413    -0.016155     1.932440
	    8 R(5,6)          =      1.092959    -0.010001    -0.000569     1.092391
	    9 R(6,7)          =      1.093919    -0.020401    -0.000621     1.093299
	   10 R(6,8)          =      1.087421    -0.037508    -0.003968     1.083452
	   11 R(6,9)          =      1.407321    -0.086014     0.009012     1.416333
	   12 R(9,10)         =      1.145473    -0.066327    -0.019017     1.126457
	   13 R(11,12)        =      1.950698    -0.154153    -0.014911     1.935788
	   14 B(1,9,6)        =    104.270309     0.000910     4.951478   109.221788
	   15 B(1,9,10)       =     66.586317     0.000895     2.343136    68.929453
	   16 B(1,11,3)       =    107.125638    -0.001019    -1.038416   106.087223
	   17 B(1,11,4)       =    111.581091    -0.000622    -0.997877   110.583214
	   18 B(1,11,12)      =    108.801880    -0.000763    -1.956600   106.845280
	   19 B(2,1,9)        =    101.964481    -0.001406    -3.819837    98.144644
	   20 B(2,1,11)       =    121.227303     0.000510     1.086762   122.314065
	   21 B(2,1,13)       =    121.501166     0.000340     0.011067   121.512233
	   22 B(3,11,4)       =    109.468907     0.000592     0.860134   110.329042
	   23 B(3,11,12)      =    108.506092     0.000740     1.407317   109.913409
	   24 B(4,11,12)      =    111.225087     0.001029     1.587865   112.812952
	   25 B(5,6,7)        =    109.895208    -0.000319    -1.350572   108.544636
	   26 B(5,6,8)        =    109.953397    -0.000282    -1.143266   108.810132
	   27 B(5,6,9)        =    107.506616     0.000257     0.830751   108.337367
	   28 B(6,9,10)       =    121.617551     0.000141    -2.325426   119.292126
	   29 B(7,6,8)        =    110.481967    -0.000167    -0.556889   109.925078
	   30 B(7,6,9)        =    110.925615     0.000236     0.942377   111.867992
	   31 B(8,6,9)        =    108.012872     0.000292     1.278155   109.291027
	   32 B(9,1,11)       =     88.152556     0.002299     5.113101    93.265657
	   33 B(9,1,13)       =    113.258812    -0.000681    -4.539336   108.719476
	   34 B(11,1,13)      =    105.585020    -0.000689     1.618180   107.203200
	   35 D(1,9,6,5)      =    148.987247     0.000190     3.192111   152.179358
	   36 D(1,9,6,7)      =     28.812704     0.000211     3.758887    32.571591
	   37 D(1,9,6,8)      =    -92.403206     0.000182     3.000518   -89.402688
	   38 D(2,1,9,6)      =   -115.103772     0.000038     1.311252  -113.792520
	   39 D(2,1,9,10)     =      3.538451     0.000011    -2.436821     1.101631
	   40 D(2,1,11,3)     =   -165.687857     0.000042     2.361343  -163.326514
	   41 D(2,1,11,4)     =    -45.890741    -0.000023     2.202920   -43.687820
	   42 D(2,1,11,12)    =     77.198228     0.000059     2.236914    79.435142
	   43 D(3,11,1,9)     =    -62.802576    -0.000000     1.246851   -61.555725
	   44 D(3,11,1,13)    =     50.849056    -0.000024    -1.661716    49.187340
	   45 D(4,11,1,9)     =     56.994540    -0.000065     1.088429    58.082969
	   46 D(4,11,1,13)    =    170.646172    -0.000088    -1.820138   168.826034
	   47 D(5,6,9,10)     =     77.947140    -0.000170    -1.824221    76.122918
	   48 D(6,9,1,11)     =    123.336480    -0.000173    -0.430921   122.905558
	   49 D(6,9,1,13)     =     17.152520    -0.000217    -3.644668    13.507852
	   50 D(7,6,9,10)     =    -42.227403    -0.000150    -1.257446   -43.484849
	   51 D(8,6,9,10)     =   -163.443313    -0.000179    -2.015814  -165.459127
	   52 D(9,1,11,12)    =   -179.916491     0.000017     1.122422  -178.794069
	   53 D(10,9,1,11)    =   -118.021297    -0.000200    -4.178994  -122.200291
	   54 D(10,9,1,13)    =    135.794743    -0.000245    -7.392740   128.402003
	   55 D(12,11,1,13)   =    -66.264859    -0.000006    -1.786145   -68.051004
	   56 R(3,6)          =      3.068084     0.228502     0.120884     3.188968
	   57 R(4,6)          =      4.090092     0.189410     0.109791     4.199884
	   58 R(6,12)         =      4.909392     0.146659     0.095453     5.004845
	 ---------------------------------------------------------------------------
	Successfully symmetrized geometry.

  ==> Convergence Check <==

  Measures of convergence in internal coordinates in au.
  Criteria marked as inactive (o), active & met (*), and active & unmet ( ).
  ---------------------------------------------------------------------------------------------
   Step     Total Energy     Delta E     MAX Force     RMS Force      MAX Disp      RMS Disp   
  ---------------------------------------------------------------------------------------------
    Convergence Criteria    1.00e-06 *    3.00e-04 *             o    1.20e-03 *             o
  ---------------------------------------------------------------------------------------------
      2   -7990.19393974   -5.40e-02      3.02e-02      1.08e-02 o    2.28e-01      6.16e-02 o  ~
  ---------------------------------------------------------------------------------------------

	Writing optimization data to binary file.
	Structure for next step:
	Cartesian Geometry (in Angstrom)
	    C    -0.0058108684   0.1110243594  -1.5866727462
	    O    -1.0423442433   0.0755388126  -2.3329752065
	   BR     1.5947576312   0.5024441806   0.6841914208
	   BR    -1.5937922394   0.6634498315   0.7303891553
	    H     1.0233131383   3.2768763073  -2.2423922688
	    C     1.2166723993   2.2383967500  -1.9640222337
	    H     1.4851494163   1.6809927558  -2.8654229982
	    H     2.0367465384   2.2132933629  -1.2564085764
	    O     0.0519228389   1.7176419387  -1.3490662365
	    H    -0.8300634510   1.4344847897  -1.9900239823
	    C    -0.0657123767  -0.1983639480  -0.0799027735
	   BR    -0.1103996485  -2.1256529815   0.0956923811
	    H     0.9777482596  -0.2283413728  -1.9502857219
			--------------------------
			 OPTKING Finished Execution 
			--------------------------

    Structure for next step:
    Molecular point group: c1
    Full point group: C1

    Geometry (in Angstrom), charge = 0, multiplicity = 1:

    C            0.013578997530     0.152360470427    -1.607144922383
    O           -1.022954377330     0.116874923559    -2.353447382675
    BR           1.614147497119     0.543780291576     0.663719244597
    BR          -1.574402373473     0.704785942511     0.709916979090
    H            1.042703004301     3.318212418345    -2.262864444980
    C            1.236062265294     2.279732861046    -1.984494409854
    H            1.504539282214     1.722328866853    -2.885895174424
    H            2.056136404343     2.254629473872    -1.276880752550
    O            0.071312704848     1.758978049657    -1.369538412717
    H           -0.810673584997     1.475820900662    -2.010496158472
    C           -0.046322510706    -0.157027836967    -0.100374949715
    BR          -0.091009782575    -2.084316870514     0.075220204899
    H            0.997138125583    -0.187005261811    -1.970757898114

gradient() will perform analytic gradient computation.

*** tstart() called on localhost.localdomain
*** at Mon Jan 21 15:44:45 2019

   => Loading Basis Set <=

    Name: ANONYMOUS49BEEDDC
    Role: ORBITAL
    Keyword: BASIS
    atoms 1, 6, 11       entry C          line   119 file /root/psi4conda/share/psi4/basis/6-311ppgss.gbs 
    atoms 2, 9           entry O          line   161 file /root/psi4conda/share/psi4/basis/6-311ppgss.gbs 
    atoms 3-4, 12        entry BR         line  1545 file /root/psi4conda/share/psi4/basis/def2-tzvpp.gbs 
    atoms 5, 7-8, 10, 13 entry H          line    42 file /root/psi4conda/share/psi4/basis/6-311ppgss.gbs 


         ---------------------------------------------------------
                                   SCF
            by Justin Turney, Rob Parrish, Andy Simmonett
                             and Daniel Smith
                              RKS Reference
                       32 Threads,    500 MiB Core
         ---------------------------------------------------------

  ==> Geometry <==

    Molecular point group: c1
    Full point group: C1

    Geometry (in Angstrom), charge = 0, multiplicity = 1:

       Center              X                  Y                   Z               Mass       
    ------------   -----------------  -----------------  -----------------  -----------------
         C            0.013578997530     0.152360470427    -1.607144922383    12.000000000000
         O           -1.022954377330     0.116874923559    -2.353447382675    15.994914619560
         BR           1.614147497119     0.543780291576     0.663719244597    78.918337087000
         BR          -1.574402373473     0.704785942511     0.709916979090    78.918337087000
         H            1.042703004301     3.318212418345    -2.262864444980     1.007825032070
         C            1.236062265294     2.279732861046    -1.984494409854    12.000000000000
         H            1.504539282214     1.722328866853    -2.885895174424     1.007825032070
         H            2.056136404343     2.254629473872    -1.276880752550     1.007825032070
         O            0.071312704848     1.758978049657    -1.369538412717    15.994914619560
         H           -0.810673584997     1.475820900662    -2.010496158472     1.007825032070
         C           -0.046322510706    -0.157027836967    -0.100374949715    12.000000000000
         BR          -0.091009782575    -2.084316870514     0.075220204899    78.918337087000
         H            0.997138125583    -0.187005261811    -1.970757898114     1.007825032070

  Running in c1 symmetry.

  Rotational constants: A =      0.02364  B =      0.01988  C =      0.01684 [cm^-1]
  Rotational constants: A =    708.83337  B =    595.92969  C =    504.89984 [MHz]
  Nuclear repulsion = 1492.013133060713926

  Charge       = 0
  Multiplicity = 1
  Electrons    = 144
  Nalpha       = 72
  Nbeta        = 72

  ==> Algorithm <==

  SCF Algorithm Type is DF.
  DIIS enabled.
  MOM disabled.
  Fractional occupation disabled.
  Guess Type is READ.
  Energy threshold   = 1.00e-08
  Density threshold  = 1.00e-08
  Integral threshold = 0.00e+00

  ==> Primary Basis <==

  Basis Set: ANONYMOUS49BEEDDC
    Blend: 6-311PPGSS + DEF2-TZVPP
    Number of shells: 123
    Number of basis function: 289
    Number of Cartesian functions: 315
    Spherical Harmonics?: true
    Max angular momentum: 3

  ==> DFT Potential <==

   => Composite Functional: M06-2X <= 

    Hybrid M06-2X Meta-GGA XC Functional

    Y. Zhao and D. G. Truhlar,  Theor. Chem. Acc., 120, 215, 2008


    Deriv               =              1
    GGA                 =           TRUE
    Meta                =           TRUE

    Exchange Hybrid     =           TRUE
    MP2 Hybrid          =          FALSE

   => Exchange Functionals <=

    1.0000   XC_HYB_MGGA_X_M06_2X

   => Exact (HF) Exchange <=

    0.5400               HF 

   => Correlation Functionals <=

    1.0000   XC_MGGA_C_M06_2X

   => Molecular Quadrature <=

    Radial Scheme       =       TREUTLER
    Pruning Scheme      =           FLAT
    Nuclear Scheme      =       TREUTLER

    BS radius alpha     =              1
    Pruning alpha       =              1
    Radial Points       =             75
    Spherical Points    =            302
    Total Points        =         294003
    Total Blocks        =           2260
    Max Points          =            256
    Max Functions       =            255

   => Loading Basis Set <=

    Name: (ANONYMOUS49BEEDDC AUX)
    Role: JKFIT
    Keyword: DF_BASIS_SCF
    atoms 1, 6, 11       entry C          line   162 file /root/psi4conda/share/psi4/basis/aug-cc-pvtz-jkfit.gbs 
    atoms 2, 9           entry O          line   286 file /root/psi4conda/share/psi4/basis/aug-cc-pvtz-jkfit.gbs 
    atoms 3-4, 12        entry BR         line  3129 file /root/psi4conda/share/psi4/basis/def2-tzvpp-jkfit.gbs 
    atoms 5, 7-8, 10, 13 entry H          line    70 file /root/psi4conda/share/psi4/basis/aug-cc-pvtz-jkfit.gbs 

  Reading orbitals from file 180, no projection.

  ==> Pre-Iterations <==

   -------------------------------------------------------
    Irrep   Nso     Nmo     Nalpha   Nbeta   Ndocc  Nsocc
   -------------------------------------------------------
     A        289     289       0       0       0       0
   -------------------------------------------------------
    Total     289     289      72      72      72       0
   -------------------------------------------------------

  ==> Integral Setup <==

  ==> DiskDFJK: Density-Fitted J/K Matrices <==

    J tasked:                  Yes
    K tasked:                  Yes
    wK tasked:                  No
    OpenMP threads:             32
    Integrals threads:          32
    Memory (MB):               375
    Algorithm:                Disk
    Integral Cache:           NONE
    Schwarz Cutoff:          1E-12
    Fitting Condition:       1E-12

   => Auxiliary Basis Set <=

  Basis Set: (ANONYMOUS49BEEDDC AUX)
    Blend: AUG-CC-PVTZ-JKFIT + DEF2-TZVPP-JKFIT
    Number of shells: 400
    Number of basis function: 1548
    Number of Cartesian functions: 2043
    Spherical Harmonics?: true
    Max angular momentum: 5

[...]
    Meta                =           TRUE

    Exchange Hybrid     =           TRUE
    MP2 Hybrid          =          FALSE

   => Exchange Functionals <=

    1.0000   XC_HYB_MGGA_X_M06_2X

   => Exact (HF) Exchange <=

    0.5400               HF 

   => Correlation Functionals <=

    1.0000   XC_MGGA_C_M06_2X

   => Molecular Quadrature <=

    Radial Scheme       =       TREUTLER
    Pruning Scheme      =           FLAT
    Nuclear Scheme      =       TREUTLER

    BS radius alpha     =              1
    Pruning alpha       =              1
    Radial Points       =             75
    Spherical Points    =            302
    Total Points        =         294004
    Total Blocks        =           2269
    Max Points          =            256
    Max Functions       =            249


  -Total Gradient:
     Atom            X                  Y                   Z
    ------   -----------------  -----------------  -----------------
       1        0.000061627878     0.000170811651    -0.000137925171
       2       -0.000042062617     0.000050776636    -0.000181507080
       3       -0.000048667888    -0.000035479182    -0.000161194812
       4        0.000001375711     0.000035597377    -0.000143786790
       5        0.000026633720     0.000052078861    -0.000086888547
       6        0.000025266321     0.000050557735    -0.000138363683
       7        0.000006683698     0.000055498705    -0.000104850554
       8        0.000009332337     0.000028318418    -0.000100473308
       9       -0.000006320351    -0.000090532269    -0.000097929457
      10        0.000050440863     0.000064156791    -0.000110693058
      11        0.000062737364     0.000008472772    -0.000128812953
      12       -0.000006325513     0.000061224165    -0.000211696040
      13       -0.000000507595     0.000045011091    -0.000175935169


*** tstop() called on localhost.localdomain at Mon Jan 21 15:53:40 2019
Module time:
	user time   =     191.02 seconds =       3.18 minutes
	system time =       6.94 seconds =       0.12 minutes
	total time  =          9 seconds =       0.15 minutes
Total time:
	user time   =   14800.99 seconds =     246.68 minutes
	system time =     595.52 seconds =       9.93 minutes
	total time  =        600 seconds =      10.00 minutes

			-----------------------------------------
			 OPTKING 2.0: for geometry optimizations 
			  - R.A. King,  Bethel University        
			-----------------------------------------

	Previous internal coordinate definitions found.
	---Fragment 1 Geometry and Gradient---
	 C           0.2159637251        0.5637495468       -2.9568940264
	 O          -1.7644027353        0.4279164381       -4.3884202357
	 BR          2.9862437265        0.8658606153        1.6683943035
	 BR         -3.0245312932        1.2124110208        1.3631515894
	 H           2.0842981067        6.6962963658       -4.4691102735
	 C           2.5105079410        4.7034466822       -4.1971298435
	 H           2.8583902639        3.7874315352       -6.0151374880
	 H           4.1360588009        4.4935478206       -2.9547563452
	 O           0.3715704265        3.5753717322       -2.9746635862
	 H          -1.2890087866        2.9761272433       -4.1886589398
	 C          -0.0324983935       -0.2204925580       -0.1437454593
	 BR         -0.2149024063       -3.8852063901       -0.1576291707
	 H           2.0650339293       -0.0856293894       -3.6653183149
	             0.0000616279        0.0001708117       -0.0001379252
	            -0.0000420626        0.0000507766       -0.0001815071
	            -0.0000486679       -0.0000354792       -0.0001611948
	             0.0000013757        0.0000355974       -0.0001437868
	             0.0000266337        0.0000520789       -0.0000868885
	             0.0000252663        0.0000505577       -0.0001383637
	             0.0000066837        0.0000554987       -0.0001048506
	             0.0000093323        0.0000283184       -0.0001004733
	            -0.0000063204       -0.0000905323       -0.0000979295
	             0.0000504409        0.0000641568       -0.0001106931
	             0.0000627374        0.0000084728       -0.0001288130
	            -0.0000063255        0.0000612242       -0.0002116960
	            -0.0000005076        0.0000450111       -0.0001759352

	---Fragment 1 Intrafragment Coordinates---
	 - Coordinate -           - BOHR/RAD -       - ANG/DEG -
	 H(2,10)          =         2.599862	       1.375788
	 R(1,2)           =         2.447360	       1.295087
	 R(1,9)           =         3.015692	       1.595835
	 R(1,11)          =         2.930968	       1.551002
	 R(1,13)          =         2.083895	       1.102750
	 R(3,11)          =         3.684673	       1.949845
	 R(4,11)          =         3.643654	       1.928138
	 R(5,6)           =         2.055986	       1.087981
	 R(6,7)           =         2.065250	       1.092883
	 R(6,8)           =         2.056688	       1.088352
	 R(6,9)           =         2.709618	       1.433868
	 R(9,10)          =         2.142522	       1.133774
	 R(11,12)         =         3.669277	       1.941698
	 B(1,9,6)         =         2.047835	     117.332313
	 B(1,9,10)        =         1.249320	      71.580789
	 B(1,11,3)        =         1.900430	     108.886617
	 B(1,11,4)        =         1.940489	     111.181837
	 B(1,11,12)       =         1.841927	     105.534626
	 B(2,1,9)         =         1.664668	      95.378431
	 B(2,1,11)        =         2.069136	     118.552734
	 B(2,1,13)        =         2.096543	     120.123070
	 B(3,11,4)        =         1.932015	     110.696307
	 B(3,11,12)       =         1.914580	     109.697329
	 B(4,11,12)       =         1.932122	     110.702456
	 B(5,6,7)         =         1.926645	     110.388604
	 B(5,6,8)         =         1.920563	     110.040156
	 B(5,6,9)         =         1.875047	     107.432306
	 B(6,9,10)        =         2.063066	     118.204984
	 B(7,6,8)         =         1.931944	     110.692253
	 B(7,6,9)         =         1.923527	     110.209990
	 B(8,6,9)         =         1.884825	     107.992525
	 B(9,1,11)        =         1.851716	     106.095521
	 B(9,1,13)        =         1.837351	     105.272477
	 B(11,1,13)       =         1.894548	     108.549600
	 D(1,9,6,5)       =         2.888302	     165.487522
	 D(1,9,6,7)       =         0.788465	      45.175743
	 D(1,9,6,8)       =        -1.323862	     -75.851727
	 D(2,1,9,6)       =        -1.983739	    -113.659883
	 D(2,1,9,10)      =        -0.013805	      -0.790978
	 D(2,1,11,3)      =        -2.928325	    -167.780659
	 D(2,1,11,4)      =        -0.795194	     -45.561288
	 D(2,1,11,12)     =         1.300613	      74.519657
	 D(3,11,1,9)      =        -1.086129	     -62.230612
	 D(3,11,1,13)     =         0.880964	      50.475543
	 D(4,11,1,9)      =         1.047001	      59.988759
	 D(4,11,1,13)     =         3.014095	     172.694914
	 D(5,6,9,10)      =         1.444250	      82.749455
	 D(6,9,1,11)      =         2.173778	     124.548323
	 D(6,9,1,13)      =         0.167315	       9.586431
	 D(7,6,9,10)      =        -0.655586	     -37.562323
	 D(8,6,9,10)      =        -2.767914	    -158.589793
	 D(9,1,11,12)     =        -3.140376	    -179.930296
	 D(10,9,1,11)     =        -2.139473	    -122.582772
	 D(10,9,1,13)     =         2.137249	     122.455336
	 D(12,11,1,13)    =        -1.173283	     -67.224141
	 R(3,6)           =         7.025508	       3.717739
	 R(4,6)           =         8.587242	       4.544173
	 R(6,12)          =         9.874735	       5.225485

	Current energy   :     -7990.2336687315

	Energy change for the previous step:
		Projected    :        -0.0000002752
		Actual       :        -0.0000004519

	Performing Bofill update.
	Previous computed or guess Hessian on step 1.
	Steps to be used in Hessian update: 20 19
	Taking PRFO optimization step.
	Maximizing along 1 lowest eigenvalue of Hessian.

 RFO min eigenvalues
 -0.000000 -0.000000 -0.000000 -0.000000 -0.000000 -0.000000 -0.000000 -0.000000
 -0.000000 -0.000000 -0.000000 -0.000000 -0.000000 -0.000000  0.000000  0.000000
  0.000000  0.000000  0.000000  0.000000  0.000000  0.000000  0.000000  0.000000
  0.000000  0.000000  0.002962  0.004268  0.013649  0.023011  0.043238  0.054149
  0.071449  0.073220  0.075480  0.080854  0.087148  0.095622  0.107294  0.145897
  0.148398  0.159899  0.163171  0.173197  0.182237  0.244095  0.259137  0.285628
  0.312721  0.332710  0.346254  0.350665  0.351222  0.360369  0.378626  0.390301
  0.435667  0.643140

 RFO max eigenvalues
 -0.048622  0.000000
	|RFO target step|  :        0.0059715480
	RFO gradient       :       -0.0000399213
	RFO hessian        :        0.0066849894
	Projected Delta(E) :       -0.0000001192

	Back-transformation to cartesian coordinates...
	Could not converge backtransformation.
	Using first guess instead.

	--- Internal Coordinate Step in ANG or DEG, aJ/ANG or AJ/DEG ---
	 ---------------------------------------------------------------------------
	   Coordinate                Previous        Force       Change         New 
	   ----------                --------       ------       ------       ------
	    1 H(2,10)         =      1.375788     0.000103    -0.000667     1.375121
	    2 R(1,2)          =      1.295087    -0.000487    -0.000029     1.295058
	    3 R(1,9)          =      1.595835     0.000797     0.000385     1.596220
	    4 R(1,11)         =      1.551002    -0.000162    -0.000074     1.550928
	    5 R(1,13)         =      1.102750    -0.000027    -0.000009     1.102741
	    6 R(3,11)         =      1.949845     0.000511     0.000175     1.950020
	    7 R(4,11)         =      1.928138    -0.000220    -0.000130     1.928008
	    8 R(5,6)          =      1.087981     0.000001     0.000011     1.087992
	    9 R(6,7)          =      1.092883     0.000076     0.000042     1.092926
	   10 R(6,8)          =      1.088352     0.000024     0.000018     1.088370
	   11 R(6,9)          =      1.433868    -0.000169     0.000006     1.433874
	   12 R(9,10)         =      1.133774     0.000349     0.000412     1.134186
	   13 R(11,12)        =      1.941698     0.000090     0.000058     1.941756
	   14 B(1,9,6)        =    117.332313    -0.000001     0.002635   117.334948
	   15 B(1,9,10)       =     71.580789     0.000001    -0.024468    71.556321
	   16 B(1,11,3)       =    108.886617    -0.000001    -0.017853   108.868764
	   17 B(1,11,4)       =    111.181837     0.000000     0.005190   111.187027
	   18 B(1,11,12)      =    105.534626     0.000000     0.008419   105.543045
	   19 B(2,1,9)        =     95.378431    -0.000002    -0.019414    95.359017
	   20 B(2,1,11)       =    118.552734     0.000002     0.014557   118.567291
	   21 B(2,1,13)       =    120.123070     0.000001     0.003940   120.127010
	   22 B(3,11,4)       =    110.696307     0.000001     0.010333   110.706639
	   23 B(3,11,12)      =    109.697329    -0.000000    -0.000015   109.697314
	   24 B(4,11,12)      =    110.702456     0.000000    -0.006565   110.695892
	   25 B(5,6,7)        =    110.388604    -0.000001    -0.014615   110.373990
	   26 B(5,6,8)        =    110.040156    -0.000001    -0.000897   110.039258
	   27 B(5,6,9)        =    107.432306    -0.000000     0.000072   107.432379
	   28 B(6,9,10)       =    118.204984     0.000001     0.025387   118.230371
	   29 B(7,6,8)        =    110.692253    -0.000001    -0.010959   110.681294
	   30 B(7,6,9)        =    110.209990     0.000002     0.013312   110.223302
	   31 B(8,6,9)        =    107.992525     0.000001     0.014131   108.006656
	   32 B(9,1,11)       =    106.095521     0.000001     0.017193   106.112715
	   33 B(9,1,13)       =    105.272477     0.000000    -0.010601   105.261876
	   34 B(11,1,13)      =    108.549600    -0.000002    -0.008302   108.541299
	   35 D(1,9,6,5)      =    165.487522     0.000000    -0.100719   165.386803
	   36 D(1,9,6,7)      =     45.175743     0.000000    -0.090746    45.084997
	   37 D(1,9,6,8)      =    -75.851727     0.000000    -0.094172   -75.945898
	   38 D(2,1,9,6)      =   -113.659883    -0.000000    -0.037225  -113.697108
	   39 D(2,1,9,10)     =     -0.790978     0.000000    -0.019080    -0.810058
	   40 D(2,1,11,3)     =   -167.780659     0.000000     0.051489  -167.729170
	   41 D(2,1,11,4)     =    -45.561288     0.000000     0.055777   -45.505510
	   42 D(2,1,11,12)    =     74.519657     0.000000     0.055837    74.575494
	   43 D(3,11,1,9)     =    -62.230612    -0.000000     0.045375   -62.185238
	   44 D(3,11,1,13)    =     50.475543    -0.000000     0.037770    50.513313
	   45 D(4,11,1,9)     =     59.988759    -0.000000     0.049663    60.038422
	   46 D(4,11,1,13)    =    172.694914    -0.000000     0.042059   172.736973
	   47 D(5,6,9,10)     =     82.749455     0.000000    -0.083567    82.665888
	   48 D(6,9,1,11)     =    124.548323    -0.000000    -0.050204   124.498118
	   49 D(6,9,1,13)     =      9.586431    -0.000000    -0.043602     9.542829
	   50 D(7,6,9,10)     =    -37.562323     0.000000    -0.073594   -37.635917
	   51 D(8,6,9,10)     =   -158.589793     0.000000    -0.077020  -158.666813
	   52 D(9,1,11,12)    =   -179.930296     0.000000     0.049723  -179.880573
	   53 D(10,9,1,11)    =   -122.582772    -0.000000    -0.032059  -122.614832
	   54 D(10,9,1,13)    =    122.455336     0.000000    -0.025457   122.429879
	   55 D(12,11,1,13)   =    -67.224141     0.000000     0.042119   -67.182023
	   56 R(3,6)          =      3.717739    -0.000101    -0.001231     3.716508
	   57 R(4,6)          =      4.544173     0.000166     0.001002     4.545175
	   58 R(6,12)         =      5.225485     0.000301     0.000016     5.225501
	 ---------------------------------------------------------------------------
	Successfully symmetrized geometry.

  ==> Convergence Check <==

  Measures of convergence in internal coordinates in au.
  Criteria marked as inactive (o), active & met (*), and active & unmet ( ).
  ---------------------------------------------------------------------------------------------
   Step     Total Energy     Delta E     MAX Force     RMS Force      MAX Disp      RMS Disp   
  ---------------------------------------------------------------------------------------------
    Convergence Criteria    1.00e-06 *    3.00e-04 *             o    1.20e-03 *             o
  ---------------------------------------------------------------------------------------------
     21   -7990.23366873   -4.52e-07 *    9.67e-05 *    2.19e-05 o    2.33e-03      7.84e-04 o  ~
  ---------------------------------------------------------------------------------------------


  **** Optimization is complete! (in 21 steps) ****

  ==> Optimization Summary <==

  Measures of convergence in internal coordinates in au.
  --------------------------------------------------------------------------------------------------------------- ~
   Step         Total Energy             Delta E       MAX Force       RMS Force        MAX Disp        RMS Disp  ~
  --------------------------------------------------------------------------------------------------------------- ~
      1   -7990.139928379199  -7990.139928379199      0.07524051      0.02407476      0.16757481      0.06055543  ~
      2   -7990.193939740827     -0.054011361628      0.03021787      0.01080170      0.22843781      0.06156187  ~
      3   -7990.217178101975     -0.023238361148      0.01849093      0.00564645      0.28658967      0.06466051  ~
      4   -7990.229445549539     -0.012267447564      0.01215588      0.00332647      0.27874370      0.06560645  ~
      5   -7990.238167561235     -0.008722011696      0.01891423      0.00435946      0.27423325      0.06544237  ~
      6   -7990.230733937460      0.007433623775      0.00938339      0.00283900      0.13093154      0.06528455  ~
      7   -7990.228487486957      0.002246450504      0.01466424      0.00381041      0.20075090      0.06563007  ~
      8   -7990.229173370236     -0.000685883279      0.01461981      0.00399962      0.16043628      0.04241243  ~
      9   -7990.231315068846     -0.002141698610      0.00514825      0.00159579      0.18027594      0.05026900  ~
     10   -7990.231825215224     -0.000510146378      0.00985511      0.00223972      0.16263557      0.03705152  ~
     11   -7990.231756209118      0.000069006106      0.00499928      0.00161062      0.07507860      0.01907281  ~
     12   -7990.232330866344     -0.000574657225      0.00513520      0.00111928      0.19407676      0.06543125  ~
     13   -7990.234133253996     -0.001802387653      0.02275579      0.00429555      0.26429842      0.06624100  ~
     14   -7990.231017189326      0.003116064670      0.01363788      0.00410578      0.18882735      0.06129498  ~
     15   -7990.233050183290     -0.002032993964      0.01150160      0.00213311      0.13092393      0.04015050  ~
     16   -7990.233406480080     -0.000356296790      0.00402948      0.00105967      0.10948811      0.03494519  ~
     17   -7990.233535510251     -0.000129030172      0.00315178      0.00080149      0.02643475      0.00960892  ~
     18   -7990.233624290942     -0.000088780691      0.00128612      0.00026629      0.04465826      0.01269360  ~
     19   -7990.233663943713     -0.000039652770      0.00098940      0.00020981      0.01137292      0.00234467  ~
     20   -7990.233668279580     -0.000004335868      0.00019156      0.00004303      0.00127563      0.00046477  ~
     21   -7990.233668731480     -0.000000451900      0.00009669      0.00002188      0.00232556      0.00078409  ~
  --------------------------------------------------------------------------------------------------------------- ~

	Writing optimization data to binary file.
	Final energy is  -7990.2336687314801
	Final (previous) structure:
	Cartesian Geometry (in Angstrom)
	    C     0.1142830812   0.2983234115  -1.5647209270
	    O    -0.9336817143   0.2264436262  -2.3222519704
	   BR     1.5802521194   0.4581937034   0.8828762403
	   BR    -1.6005130270   0.6415802797   0.7213487530
	    H     1.1029630540   3.5435274187  -2.3649512994
	    C     1.3285035844   2.4889567860  -2.2210254547
	    H     1.5125949809   2.0042224475  -3.1830736652
	    H     2.1887080508   2.3778830924  -1.5635897148
	    O     0.1966266011   1.8920052329  -1.5741241730
	    H    -0.6821140715   1.5748987070  -2.2165428455
	    C    -0.0171974091  -0.1166796364  -0.0760668209
	   BR    -0.1137214555  -2.0559626723  -0.0834137645
	    H     1.0927688903  -0.0453131213  -1.9396029145
	Saving final (previous) structure.
	Removing binary optimization data file.
			--------------------------
			 OPTKING Finished Execution 
			--------------------------

    Final optimized geometry and variables:
    Molecular point group: c1
    Full point group: C1

    Geometry (in Angstrom), charge = 0, multiplicity = 1:

    C            0.114283081192     0.298323411498    -1.564720926966
    O           -0.933681714310     0.226443626216    -2.322251970436
    BR           1.580252119363     0.458193703415     0.882876240334
    BR          -1.600513027011     0.641580279657     0.721348752976
    H            1.102963053972     3.543527418724    -2.364951299416
    C            1.328503584354     2.488956786040    -2.221025454663
    H            1.512594980897     2.004222447527    -3.183073665180
    H            2.188708050801     2.377883092360    -1.563589714819
    O            0.196626601110     1.892005232910    -1.574124173045
    H           -0.682114071540     1.574898707014    -2.216542845479
    C           -0.017197409137    -0.116679636361    -0.076066820895
    BR          -0.113721455507    -2.055962672289    -0.083413764549
    H            1.092768890340    -0.045313121271    -1.939602914483

	Removing binary optimization data file.
	Cleaning optimization helper files.

    Psi4 stopped on: Monday, 21 January 2019 03:53PM
    Psi4 wall time for execution: 0:10:00.25

*** Psi4 exiting successfully. Buy a developer a beer!
