
    -----------------------------------------------------------------------
          Psi4: An Open-Source Ab Initio Electronic Structure Package
                               Psi4 1.2.1 release

                         Git: Rev {HEAD} 406f4de 


    R. M. Parrish, L. A. Burns, D. G. A. Smith, A. C. Simmonett,
    A. E. DePrince III, E. G. Hohenstein, U. Bozkaya, A. Yu. Sokolov,
    R. Di Remigio, R. M. Richard, J. F. Gonthier, A. M. James,
    H. R. McAlexander, A. Kumar, M. Saitow, X. Wang, B. P. Pritchard,
    P. Verma, H. F. Schaefer III, K. Patkowski, R. A. King, E. F. Valeev,
    F. A. Evangelista, J. M. Turney, T. D. Crawford, and C. D. Sherrill,
    J. Chem. Theory Comput. 13(7) pp 3185--3197 (2017).
    (doi: 10.1021/acs.jctc.7b00174)


                         Additional Contributions by
    P. Kraus, H. Kruse, M. H. Lechner, M. C. Schieber, and R. A. Shaw

    -----------------------------------------------------------------------


    Psi4 started on: Friday, 08 March 2019 03:20PM

    Process ID: 53123
    Host:       localhost.localdomain
    PSIDATADIR: /root/psi4conda/share/psi4
    Memory:     500.0 MiB
    Threads:    1
    
  ==> Input File <==

--------------------------------------------------------------------------
molecule{
0 1
C -0.0364630000 -0.7236840000 0.0925330000

O -1.0957300000 -0.7652260000 -0.6716710000

H 0.9926152509 2.4785481395 -1.1169056160

C 1.1903237364 1.4406325696 -0.8434727350

H 1.3277740000 0.8214220000 -1.7370080000

H 2.1113090000 1.3662170000 -0.2243770000

O 0.1089540000 0.9381190000 -0.0569480000

H -0.7832300000 0.5335960000 -0.6528260000

C -0.2565798470 -1.1180241509 1.5472267227

H 0.9202420000 -1.0663630000 -0.3367070000

C -0.9687422001 -2.6382041394 2.2641253682

C -1.3995173810 -3.7154698962 3.8355467275

C -1.4491041710 -4.0712868632 5.6693243973

C -0.7500330371 -2.5527576583 4.8559697952

C -0.2689298299 -1.3919934721 3.3430960997

H -1.3188550797 -3.2368639033 1.3885092389

H -1.8795141786 -4.6106967911 3.3538731444

H -1.9352896555 -5.0277042333 5.4710540343

H -0.3742881702 -1.9443029902 5.7235018245

H 0.2812551937 -0.5340448602 3.7925880481  
}

set{
   basis 6-311++G(d,p)
   freeze_core True
   opt_type ts
}


set_num_threads(32)
optimize('m06-2x')
--------------------------------------------------------------------------
  Threads set to 32 by Python driver.
gradient() will perform analytic gradient computation.

*** tstart() called on localhost.localdomain
*** at Fri Mar  8 15:20:36 2019

   => Loading Basis Set <=

    Name: 6-311++G(D,P)
    Role: ORBITAL
    Keyword: BASIS
    atoms 1, 4, 9, 11-15       entry C          line   119 file /root/psi4conda/share/psi4/basis/6-311ppg_d_p_.gbs 
    atoms 2, 7                 entry O          line   161 file /root/psi4conda/share/psi4/basis/6-311ppg_d_p_.gbs 
    atoms 3, 5-6, 8, 10, 16-20 entry H          line    42 file /root/psi4conda/share/psi4/basis/6-311ppg_d_p_.gbs 


         ---------------------------------------------------------
                                   SCF
            by Justin Turney, Rob Parrish, Andy Simmonett
                             and Daniel Smith
                              RKS Reference
                       32 Threads,    500 MiB Core
         ---------------------------------------------------------

  ==> Geometry <==

    Molecular point group: c1
    Full point group: C1

    Geometry (in Angstrom), charge = 0, multiplicity = 1:

       Center              X                  Y                   Z               Mass       
    ------------   -----------------  -----------------  -----------------  -----------------
         C            0.425012796542     0.621971231469    -1.742085476765    12.000000000000
         O           -0.634254203458     0.580429231469    -2.506289476765    15.994914619560
         H            1.454091047442     3.824203370969    -2.951524092765     1.007825032070
         C            1.651799532942     2.786287801069    -2.678091211765    12.000000000000
         H            1.789249796542     2.167077231469    -3.571626476765     1.007825032070
         H            2.572784796542     2.711872231469    -2.058995476765     1.007825032070
         O            0.570429796542     2.283774231469    -1.891566476765    15.994914619560
         H           -0.321754203458     1.879251231469    -2.487444476765     1.007825032070
         C            0.204895949542     0.227631080569    -0.287391754065    12.000000000000
         H            1.381717796542     0.279292231469    -2.171325476765     1.007825032070
         C           -0.507266403558    -1.292548907931     0.429506891435    12.000000000000
         C           -0.938041584458    -2.369814664731     2.000928250735    12.000000000000
         C           -0.987628374458    -2.725631631731     3.834705920535    12.000000000000
         C           -0.288557240558    -1.207102426831     3.021351318435    12.000000000000
         C            0.192545966642    -0.046338240631     1.508477622935    12.000000000000
         H           -0.857379283158    -1.891208671831    -0.446109237865     1.007825032070
         H           -1.418038382058    -3.265041559631     1.519254667635     1.007825032070
         H           -1.473813858958    -3.682049001831     3.636435557535     1.007825032070
         H            0.087187626342    -0.598647758731     3.888883347735     1.007825032070
         H            0.742730990242     0.811610371269     1.957969571335     1.007825032070

  Running in c1 symmetry.

  Rotational constants: A =      0.13579  B =      0.01478  C =      0.01363 [cm^-1]
  Rotational constants: A =   4070.97415  B =    442.97423  C =    408.61118 [MHz]
  Nuclear repulsion =  446.257810217756230

  Charge       = 0
  Multiplicity = 1
  Electrons    = 74
  Nalpha       = 37
  Nbeta        = 37

  ==> Algorithm <==

  SCF Algorithm Type is DF.
  DIIS enabled.
  MOM disabled.
  Fractional occupation disabled.
  Guess Type is SAD.
  Energy threshold   = 1.00e-08
  Density threshold  = 1.00e-08
  Integral threshold = 0.00e+00

  ==> Primary Basis <==

  Basis Set: 6-311++G(D,P)
    Blend: 6-311++G(D,P)
    Number of shells: 150
    Number of basis function: 290
    Number of Cartesian functions: 300
    Spherical Harmonics?: true
    Max angular momentum: 2

  ==> DFT Potential <==

   => Composite Functional: M06-2X <= 

    Hybrid M06-2X Meta-GGA XC Functional

    Y. Zhao and D. G. Truhlar,  Theor. Chem. Acc., 120, 215, 2008


    Deriv               =              1
    GGA                 =           TRUE
    Meta                =           TRUE

    Exchange Hybrid     =           TRUE
    MP2 Hybrid          =          FALSE

   => Exchange Functionals <=

    1.0000   XC_HYB_MGGA_X_M06_2X

   => Exact (HF) Exchange <=

    0.5400               HF 

   => Correlation Functionals <=

    1.0000   XC_MGGA_C_M06_2X

   => Molecular Quadrature <=

    Radial Scheme       =       TREUTLER
    Pruning Scheme      =           FLAT
    Nuclear Scheme      =       TREUTLER

    BS radius alpha     =              1
    Pruning alpha       =              1
    Radial Points       =             75
    Spherical Points    =            302
    Total Points        =         453000
    Total Blocks        =           3384
    Max Points          =            256
    Max Functions       =            237

   => Loading Basis Set <=

    Name: (6-311++G(D,P) AUX)
    Role: JKFIT
    Keyword: DF_BASIS_SCF
    atoms 1, 4, 9, 11-15       entry C          line   162 file /root/psi4conda/share/psi4/basis/aug-cc-pvtz-jkfit.gbs 
    atoms 2, 7                 entry O          line   286 file /root/psi4conda/share/psi4/basis/aug-cc-pvtz-jkfit.gbs 
    atoms 3, 5-6, 8, 10, 16-20 entry H          line    70 file /root/psi4conda/share/psi4/basis/aug-cc-pvtz-jkfit.gbs 

  ==> Pre-Iterations <==

   -------------------------------------------------------
    Irrep   Nso     Nmo     Nalpha   Nbeta   Ndocc  Nsocc
   -------------------------------------------------------
     A        290     290       0       0       0       0
   -------------------------------------------------------
    Total     290     290      37      37      37       0
   -------------------------------------------------------

  ==> Integral Setup <==

  ==> DiskDFJK: Density-Fitted J/K Matrices <==

    J tasked:                  Yes
    K tasked:                  Yes
    wK tasked:                  No
    OpenMP threads:             32
    Integrals threads:          32
    Memory (MB):               375
    Algorithm:                Disk
    Integral Cache:           NONE
    Schwarz Cutoff:          1E-12
    Fitting Condition:       1E-12

   => Auxiliary Basis Set <=

  Basis Set: (6-311++G(D,P) AUX)
    Blend: AUG-CC-PVTZ-JKFIT
    Number of shells: 440
    Number of basis function: 1500
    Number of Cartesian functions: 1860
    Spherical Harmonics?: true
    Max angular momentum: 4

  Minimum eigenvalue in the overlap matrix is 3.5104978727E-06.
  Using Symmetric Orthogonalization.

  SCF Guess: Superposition of Atomic Densities via on-the-fly atomic UHF.

  ==> Iterations <==

                           Total Energy        Delta E     RMS |[F,P]|

   @DF-RKS iter   0:  -461.94244577651085   -4.61942e+02   7.43308e-02 
   @DF-RKS iter   1:  -460.12814223713400    1.81430e+00   8.77966e-03 
   @DF-RKS iter   2:  -460.13177920989256   -3.63697e-03   1.13056e-02 DIIS
   @DF-RKS iter   3:  -460.29550656745039   -1.63727e-01   2.39305e-03 DIIS
   @DF-RKS iter   4:  -460.30431694412056   -8.81038e-03   1.70418e-03 DIIS
   @DF-RKS iter   5:  -460.31116210964450   -6.84517e-03   6.03091e-04 DIIS
   @DF-RKS iter   6:  -460.31267317499953   -1.51107e-03   4.04304e-04 DIIS
   @DF-RKS iter   7:  -460.31341649895990   -7.43324e-04   1.78831e-04 DIIS
   @DF-RKS iter   8:  -460.31378979602363   -3.73297e-04   1.10514e-04 DIIS
   @DF-RKS iter   9:  -460.31392850774370   -1.38712e-04   5.54456e-05 DIIS
   @DF-RKS iter  10:  -460.31395825580250   -2.97481e-05   3.76608e-05 DIIS
   @DF-RKS iter  11:  -460.31397037311024   -1.21173e-05   2.12938e-05 DIIS
   @DF-RKS iter  12:  -460.31397419866437   -3.82555e-06   1.18456e-05 DIIS
   @DF-RKS iter  13:  -460.31397661463131   -2.41597e-06   7.61754e-06 DIIS
   @DF-RKS iter  14:  -460.31397753026198   -9.15631e-07   3.70799e-06 DIIS
   @DF-RKS iter  15:  -460.31397794087434   -4.10612e-07   3.26329e-06 DIIS
   @DF-RKS iter  16:  -460.31397809747915   -1.56605e-07   2.57407e-06 DIIS
   @DF-RKS iter  17:  -460.31397814946774   -5.19886e-08   1.44902e-06 DIIS
   @DF-RKS iter  18:  -460.31397817500527   -2.55375e-08   1.39397e-06 DIIS
   @DF-RKS iter  19:  -460.31397818605416   -1.10489e-08   6.35800e-07 DIIS
   @DF-RKS iter  20:  -460.31397819009777   -4.04361e-09   2.65231e-07 DIIS
   @DF-RKS iter  21:  -460.31397819125789   -1.16012e-09   2.16209e-07 DIIS
   @DF-RKS iter  22:  -460.31397819190238   -6.44491e-10   1.57963e-07 DIIS
   @DF-RKS iter  23:  -460.31397819219535   -2.92971e-10   1.30310e-07 DIIS
   @DF-RKS iter  24:  -460.31397819236383   -1.68484e-10   7.52173e-08 DIIS
   @DF-RKS iter  25:  -460.31397819244745   -8.36167e-11   4.45782e-08 DIIS
   @DF-RKS iter  26:  -460.31397819249145   -4.39968e-11   2.78695e-08 DIIS
   @DF-RKS iter  27:  -460.31397819250259   -1.11413e-11   2.29002e-08 DIIS
   @DF-RKS iter  28:  -460.31397819250725   -4.66116e-12   2.04261e-08 DIIS
   @DF-RKS iter  29:  -460.31397819250964   -2.38742e-12   1.33135e-08 DIIS
   @DF-RKS iter  30:  -460.31397819251032   -6.82121e-13   8.28315e-09 DIIS

  ==> Post-Iterations <==

    Orbital Energies [Eh]
    ---------------------

    Doubly Occupied:                                                      

       1A    -19.674737     2A    -19.582796     3A    -10.672008  
       4A    -10.668871     5A    -10.647747     6A    -10.646328  
       7A    -10.636957     8A    -10.609991     9A    -10.606757  
      10A    -10.602602    11A     -1.215279    12A     -1.105742  
      13A     -0.877913    14A     -0.831753    15A     -0.809246  
      16A     -0.764032    17A     -0.728721    18A     -0.678166  
      19A     -0.651804    20A     -0.630453    21A     -0.615258  
      22A     -0.562564    23A     -0.558435    24A     -0.538272  
      25A     -0.512694    26A     -0.502676    27A     -0.482590  
      28A     -0.449580    29A     -0.440180    30A     -0.368771  
      31A     -0.367548    32A     -0.354353    33A     -0.341524  
      34A     -0.305930    35A     -0.298318    36A     -0.245327  
      37A     -0.238038  

    Virtual:                                                              

      38A     -0.089058    39A     -0.063863    40A     -0.020737  
      41A     -0.012869    42A     -0.009012    43A     -0.007248  
      44A      0.001747    45A      0.013273    46A      0.015513  
      47A      0.021652    48A      0.033691    49A      0.037979  
      50A      0.040149    51A      0.048295    52A      0.052512  
      53A      0.061147    54A      0.070044    55A      0.072116  
      56A      0.078912    57A      0.088064    58A      0.091672  
      59A      0.096339    60A      0.100269    61A      0.102037  
      62A      0.111872    63A      0.116629    64A      0.122947  
      65A      0.128763    66A      0.130268    67A      0.131139  
      68A      0.138668    69A      0.144772    70A      0.147178  
      71A      0.148445    72A      0.152142    73A      0.161481  
      74A      0.163259    75A      0.168990    76A      0.176409  
      77A      0.178221    78A      0.184024    79A      0.189658  
      80A      0.192567    81A      0.202293    82A      0.206787  
      83A      0.210874    84A      0.215955    85A      0.225754  
      86A      0.239567    87A      0.243949    88A      0.252762  
      89A      0.255881    90A      0.263376    91A      0.269209  
      92A      0.271073    93A      0.279910    94A      0.289833  
      95A      0.300492    96A      0.311954    97A      0.315777  
      98A      0.324734    99A      0.330369   100A      0.337163  
     101A      0.347474   102A      0.352738   103A      0.361050  
     104A      0.361577   105A      0.369093   106A      0.392305  
     107A      0.397275   108A      0.425891   109A      0.448134  
     110A      0.466566   111A      0.480378   112A      0.503545  
     113A      0.544341   114A      0.550829   115A      0.570996  
     116A      0.577003   117A      0.582936   118A      0.586787  
     119A      0.594742   120A      0.597107   121A      0.602827  
     122A      0.607645   123A      0.616968   124A      0.628767  
     125A      0.632477   126A      0.650428   127A      0.653870  
     128A      0.670120   129A      0.672900   130A      0.680014  
     131A      0.693479   132A      0.699410   133A      0.714462  
     134A      0.726741   135A      0.733666   136A      0.751214  
     137A      0.769849   138A      0.779875   139A      0.784659  
     140A      0.821696   141A      0.837734   142A      0.857821  
     143A      0.871992   144A      0.881844   145A      0.916095  
     146A      0.926100   147A      0.934573   148A      0.968047  
     149A      0.983839   150A      0.986705   151A      0.993864  
     152A      1.035911   153A      1.048746   154A      1.068685  
     155A      1.084145   156A      1.107072   157A      1.110547  
     158A      1.132243   159A      1.150405   160A      1.166284  
     161A      1.210860   162A      1.231497   163A      1.247975  
     164A      1.258706   165A      1.264432   166A      1.279348  
     167A      1.303917   168A      1.305965   169A      1.317104  
     170A      1.324106   171A      1.359755   172A      1.390105  
     173A      1.408565   174A      1.416587   175A      1.436877  
     176A      1.463489   177A      1.488246   178A      1.513845  
     179A      1.520785   180A      1.534876   181A      1.551691  
     182A      1.572971   183A      1.581855   184A      1.602904  
     185A      1.610790   186A      1.631804   187A      1.644588  
     188A      1.654956   189A      1.705130   190A      1.717027  
     191A      1.721168   192A      1.731593   193A      1.736858  
     194A      1.740313   195A      1.765146   196A      1.773454  
     197A      1.787832   198A      1.816131   199A      1.823651  
     200A      1.840678   201A      1.865896   202A      1.894590  
     203A      1.919002   204A      1.931064   205A      1.945799  
     206A      1.961783   207A      1.965303   208A      2.003362  
     209A      2.019631   210A      2.035252   211A      2.059918  
     212A      2.063340   213A      2.104462   214A      2.129758  
     215A      2.135812   216A      2.164640   217A      2.172476  
     218A      2.237786   219A      2.276098   220A      2.316723  
     221A      2.369230   222A      2.387842   223A      2.440644  
     224A      2.445486   225A      2.508773   226A      2.511083  
     227A      2.547234   228A      2.575253   229A      2.593287  
     230A      2.601622   231A      2.613635   232A      2.677790  
     233A      2.689653   234A      2.694056   235A      2.716634  
     236A      2.737957   237A      2.745692   238A      2.756792  
     239A      2.763251   240A      2.794135   241A      2.804343  
     242A      2.820623   243A      2.830399   244A      2.841876  
     245A      2.891916   246A      2.931605   247A      2.941807  
     248A      2.946232   249A      2.978623   250A      3.012718  
     251A      3.023435   252A      3.096784   253A      3.135377  
     254A      3.153710   255A      3.186751   256A      3.207324  
     257A      3.219246   258A      3.270619   259A      3.296164  
     260A      3.406613   261A      3.454622   262A      3.488124  
     263A      3.526596   264A      3.566528   265A      3.589700  
     266A      3.636236   267A      3.665136   268A      3.737204  
     269A      3.809382   270A      3.821521   271A      3.904189  
     272A      3.952518   273A      4.088612   274A      4.172557  
     275A      5.212873   276A      5.264500   277A      5.327927  
     278A      5.331145   279A      5.633715   280A      5.791320  
     281A     23.576146   282A     23.582900   283A     23.646914  
     284A     23.695964   285A     23.730282   286A     23.769443  
     287A     23.862238   288A     23.951922   289A     50.002439  
     290A     50.128730  

    Final Occupation by Irrep:
              A 
    DOCC [    37 ]

  Energy converged.

  @DF-RKS Final Energy:  -460.31397819251032

   => Energetics <=

    Nuclear Repulsion Energy =            446.2578102177562300
    One-Electron Energy =               -1508.3264314623468181
    Two-Electron Energy =                 632.3386398822315186
    DFT Exchange-Correlation Energy =     -30.5839968301512855
    Empirical Dispersion Energy =           0.0000000000000000
    VV10 Nonlocal Energy =                  0.0000000000000000
    Total Energy =                       -460.3139781925103193



Properties will be evaluated at   0.000000,   0.000000,   0.000000 [a0]

Properties computed using the SCF density matrix

  Nuclear Dipole Moment: [e a0]
     X:     3.7091      Y:     2.1103      Z:    -2.5378

  Electronic Dipole Moment: [e a0]
     X:    -2.6209      Y:    -1.8919      Z:     2.2942

  Dipole Moment: [e a0]
     X:     1.0882      Y:     0.2184      Z:    -0.2436     Total:     1.1363

  Dipole Moment: [D]
     X:     2.7659      Y:     0.5552      Z:    -0.6190     Total:     2.8882


*** tstop() called on localhost.localdomain at Fri Mar  8 15:21:20 2019
Module time:
	user time   =    1266.72 seconds =      21.11 minutes
	system time =      40.32 seconds =       0.67 minutes
	total time  =         44 seconds =       0.73 minutes
Total time:
	user time   =    1266.72 seconds =      21.11 minutes
	system time =      40.32 seconds =       0.67 minutes
	total time  =         44 seconds =       0.73 minutes

*** tstart() called on localhost.localdomain
*** at Fri Mar  8 15:21:20 2019


         ------------------------------------------------------------
                                   SCF GRAD                          
                          Rob Parrish, Justin Turney,                
                       Andy Simmonett, and Alex Sokolov              
         ------------------------------------------------------------

  ==> Geometry <==

    Molecular point group: c1
    Full point group: C1

    Geometry (in Angstrom), charge = 0, multiplicity = 1:

       Center              X                  Y                   Z               Mass       
    ------------   -----------------  -----------------  -----------------  -----------------
         C            0.425012796542     0.621971231469    -1.742085476765    12.000000000000
         O           -0.634254203458     0.580429231469    -2.506289476765    15.994914619560
         H            1.454091047442     3.824203370969    -2.951524092765     1.007825032070
         C            1.651799532942     2.786287801069    -2.678091211765    12.000000000000
         H            1.789249796542     2.167077231469    -3.571626476765     1.007825032070
         H            2.572784796542     2.711872231469    -2.058995476765     1.007825032070
         O            0.570429796542     2.283774231469    -1.891566476765    15.994914619560
         H           -0.321754203458     1.879251231469    -2.487444476765     1.007825032070
         C            0.204895949542     0.227631080569    -0.287391754065    12.000000000000
         H            1.381717796542     0.279292231469    -2.171325476765     1.007825032070
         C           -0.507266403558    -1.292548907931     0.429506891435    12.000000000000
         C           -0.938041584458    -2.369814664731     2.000928250735    12.000000000000
         C           -0.987628374458    -2.725631631731     3.834705920535    12.000000000000
         C           -0.288557240558    -1.207102426831     3.021351318435    12.000000000000
         C            0.192545966642    -0.046338240631     1.508477622935    12.000000000000
         H           -0.857379283158    -1.891208671831    -0.446109237865     1.007825032070
         H           -1.418038382058    -3.265041559631     1.519254667635     1.007825032070
         H           -1.473813858958    -3.682049001831     3.636435557535     1.007825032070
         H            0.087187626342    -0.598647758731     3.888883347735     1.007825032070
         H            0.742730990242     0.811610371269     1.957969571335     1.007825032070

  Nuclear repulsion =  446.257810217756230

  ==> Basis Set <==

  Basis Set: 6-311++G(D,P)
    Blend: 6-311++G(D,P)
    Number of shells: 150
    Number of basis function: 290
    Number of Cartesian functions: 300
    Spherical Harmonics?: true
    Max angular momentum: 2

  ==> DFJKGrad: Density-Fitted SCF Gradients <==

    Gradient:                    1
    J tasked:                  Yes
    K tasked:                  Yes
    wK tasked:                  No
    OpenMP threads:             32
    Integrals threads:          32
    Memory (MB):               375
    Schwarz Cutoff:          0E+00
    Fitting Condition:       1E-12

   => Auxiliary Basis Set <=

  Basis Set: (6-311++G(D,P) AUX)
    Blend: AUG-CC-PVTZ-JKFIT
    Number of shells: 440
    Number of basis function: 1500
    Number of Cartesian functions: 1860
    Spherical Harmonics?: true
    Max angular momentum: 4

  ==> DFT Potential <==

   => Composite Functional: M06-2X <= 

    Hybrid M06-2X Meta-GGA XC Functional

    Y. Zhao and D. G. Truhlar,  Theor. Chem. Acc., 120, 215, 2008


    Deriv               =              1
    GGA                 =           TRUE
    Meta                =           TRUE

    Exchange Hybrid     =           TRUE
    MP2 Hybrid          =          FALSE

   => Exchange Functionals <=

    1.0000   XC_HYB_MGGA_X_M06_2X

   => Exact (HF) Exchange <=

    0.5400               HF 

   => Correlation Functionals <=

    1.0000   XC_MGGA_C_M06_2X

   => Molecular Quadrature <=

    Radial Scheme       =       TREUTLER
    Pruning Scheme      =           FLAT
    Nuclear Scheme      =       TREUTLER

    BS radius alpha     =              1
    Pruning alpha       =              1
    Radial Points       =             75
    Spherical Points    =            302
    Total Points        =         453000
    Total Blocks        =           3384
    Max Points          =            256
    Max Functions       =            237


  -Total Gradient:
     Atom            X                  Y                   Z
    ------   -----------------  -----------------  -----------------
       1        0.010636369295     0.014135746841    -0.021690344955
       2        0.001430717074    -0.004031617946     0.001827749705
       3        0.000171932347     0.002194549273    -0.001476211249
       4       -0.012898486443     0.009318075864    -0.011442871795
       5        0.001485656179    -0.002033581698     0.001164998530
       6        0.010389797420    -0.004603841641     0.008103165444
       7        0.004146082391    -0.007724671958     0.004331261880
       8       -0.001153109542    -0.002699127612    -0.001046627986
       9        0.027817419188     0.082786499147    -0.091356908468
      10       -0.002083872521     0.001761723351    -0.007490717589
      11       -0.046846070088    -0.109652109435     0.032055564516
      12       -0.032624511345    -0.055834062185    -0.118546849389
      13       -0.019192116351    -0.048053047421     0.066347537788
      14        0.052280964137     0.094346023308     0.056630718949
      15        0.009399719386     0.014977588439     0.097702867090
      16       -0.004471441109     0.005835634467    -0.004427378277
      17       -0.008681926983    -0.012029616760    -0.006820328447
      18        0.001392318396     0.001579031958    -0.004397729560
      19        0.008469248267     0.019747550683     0.001484963971
      20        0.000349196775     0.000177823550    -0.000837128834


*** tstop() called on localhost.localdomain at Fri Mar  8 15:21:28 2019
Module time:
	user time   =     211.20 seconds =       3.52 minutes
	system time =       4.92 seconds =       0.08 minutes
	total time  =          8 seconds =       0.13 minutes
Total time:
	user time   =    1477.99 seconds =      24.63 minutes
	system time =      45.25 seconds =       0.75 minutes
	total time  =         52 seconds =       0.87 minutes

			-----------------------------------------
			 OPTKING 2.0: for geometry optimizations 
			  - R.A. King,  Bethel University        
			-----------------------------------------

	Internal coordinates to be generated automatically.
	Detected frag 1 with atoms:  1 2 3 4 5 6 7 8 9 10 11 12 13 14 15 16 17 18 19 20
	---Fragment 1 Bond Connectivity---
	 1 : 2 7 9 10
	 2 : 1
	 3 : 4
	 4 : 3 5 6 7
	 5 : 4
	 6 : 4
	 7 : 1 4 8
	 8 : 7
	 9 : 1 11 15
	 10 : 1
	 11 : 9 12 15 16
	 12 : 11 13 14 17
	 13 : 12 14 18
	 14 : 12 13 15 19
	 15 : 9 11 14 20
	 16 : 11
	 17 : 12
	 18 : 13
	 19 : 14
	 20 : 15

	---Fragment 1 Geometry and Gradient---
	 C           0.8031577884        1.1753552900       -3.2920644512
	 O          -1.1985667432        1.0968522870       -4.7362007208
	 H           2.7478338519        7.2266970476       -5.5775722099
	 C           3.1214487437        5.2653208714       -5.0608589491
	 H           3.3811920988        4.0951824763       -6.7493958900
	 H           4.8618586643        5.1246958249       -3.8909375599
	 O           1.0779560935        4.3157078468       -3.5745426032
	 H          -0.6080273266        3.5512701624       -4.7005888318
	 C           0.3871972304        0.4301604016       -0.5430917080
	 H           2.6110682284        0.5277858285       -4.1032104964
	 C          -0.9585945791       -2.4425634494        0.8116503970
	 C          -1.7726416959       -4.4783007020        3.7812064054
	 C          -1.8663471488       -5.1506973231        7.2465439900
	 C          -0.5452941583       -2.2810930011        5.7095265431
	 C           0.3638591449       -0.0875665843        2.8506095849
	 H          -1.6202120372       -3.5738664499       -0.8430242849
	 H          -2.6797041880       -6.1700343602        2.8709752479
	 H          -2.7851045643       -6.9580642213        6.8718673036
	 H           0.1647607360       -1.1312803141        7.3489244900
	 H           1.4035581620        1.5337213283        3.7000262663
	             0.0106363693        0.0141357468       -0.0216903450
	             0.0014307171       -0.0040316179        0.0018277497
	             0.0001719323        0.0021945493       -0.0014762112
	            -0.0128984864        0.0093180759       -0.0114428718
	             0.0014856562       -0.0020335817        0.0011649985
	             0.0103897974       -0.0046038416        0.0081031654
	             0.0041460824       -0.0077246720        0.0043312619
	            -0.0011531095       -0.0026991276       -0.0010466280
	             0.0278174192        0.0827864991       -0.0913569085
	            -0.0020838725        0.0017617234       -0.0074907176
	            -0.0468460701       -0.1096521094        0.0320555645
	            -0.0326245113       -0.0558340622       -0.1185468494
	            -0.0191921164       -0.0480530474        0.0663475378
	             0.0522809641        0.0943460233        0.0566307189
	             0.0093997194        0.0149775884        0.0977028671
	            -0.0044714411        0.0058356345       -0.0044273783
	            -0.0086819270       -0.0120296168       -0.0068203284
	             0.0013923184        0.0015790320       -0.0043977296
	             0.0084692483        0.0197475507        0.0014849640
	             0.0003491968        0.0001778236       -0.0008371288

	Previous optimization step data not found.  Starting new optimization.

	---Fragment 1 Intrafragment Coordinates---
	 - Coordinate -           - BOHR/RAD -       - ANG/DEG -
	 H(2,8)           =         2.524712	       1.336020
	 R(1,2)           =         2.469533	       1.306821
	 R(1,7)           =         3.164984	       1.674837
	 R(1,9)           =         2.878401	       1.523184
	 R(1,10)          =         2.084669	       1.103159
	 R(3,4)           =         2.062420	       1.091386
	 R(4,5)           =         2.070712	       1.095774
	 R(4,6)           =         2.101789	       1.112219
	 R(4,7)           =         2.699401	       1.428461
	 R(7,8)           =         2.166768	       1.146604
	 R(9,11)          =         3.449496	       1.825395
	 R(9,15)          =         3.433044	       1.816689
	 R(11,12)         =         3.691228	       1.953314
	 R(11,15)         =         3.384117	       1.790798
	 R(11,16)         =         2.110813	       1.116994
	 R(12,13)         =         3.531213	       1.868637
	 R(12,14)         =         3.170571	       1.677794
	 R(12,17)         =         2.124440	       1.124205
	 R(13,14)         =         3.513151	       1.859080
	 R(13,18)         =         2.061813	       1.091064
	 R(14,15)         =         3.716386	       1.966627
	 R(14,19)         =         2.124588	       1.124283
	 R(15,20)         =         2.105008	       1.113922
	 B(1,7,4)         =         2.053210	     117.640288
	 B(1,7,8)         =         1.190461	      68.208419
	 B(1,9,11)        =         2.274519	     130.320343
	 B(1,9,15)        =         2.963115	     169.773982
	 B(2,1,7)         =         1.620543	      92.850270
	 B(2,1,9)         =         2.018748	     115.665759
	 B(2,1,10)        =         2.055046	     117.745469
	 B(3,4,5)         =         1.934599	     110.844333
	 B(3,4,6)         =         1.931671	     110.676581
	 B(3,4,7)         =         1.912787	     109.594641
	 B(4,7,8)         =         2.011977	     115.277768
	 B(5,4,6)         =         1.888326	     108.193082
	 B(5,4,7)         =         1.923200	     110.191245
	 B(6,4,7)         =         1.872171	     107.267475
	 B(7,1,9)         =         1.933349	     110.772741
	 B(7,1,10)        =         1.770309	     101.431209
	 B(9,1,10)        =         2.000399	     114.614435
	 B(9,11,12)       =         2.608589	     149.461139
	 B(9,11,15)       =         1.052532	      60.305634
	 B(9,11,16)       =         1.834607	     105.115214
	 B(9,15,11)       =         1.060998	      60.790725
	 B(9,15,14)       =         2.588933	     148.334946
	 B(9,15,20)       =         1.853952	     106.223651
	 B(11,9,15)       =         1.028062	      58.903640
	 B(11,12,13)      =         2.691369	     154.204078
	 B(11,12,14)      =         1.592518	      91.244575
	 B(11,12,17)      =         1.760581	     100.873864
	 B(11,15,14)      =         1.527938	      87.544420
	 B(11,15,20)      =         2.904918	     166.439519
	 B(12,11,15)      =         1.556057	      89.155505
	 B(12,11,16)      =         1.839969	     105.422482
	 B(12,13,14)      =         0.933711	      53.497687
	 B(12,13,18)      =         1.571205	      90.023442
	 B(12,14,13)      =         1.109028	      63.542617
	 B(12,14,15)      =         1.606667	      92.055224
	 B(12,14,19)      =         2.911838	     166.836011
	 B(13,12,14)      =         1.098854	      62.959696
	 B(13,12,17)      =         1.831233	     104.921924
	 B(13,14,15)      =         2.715678	     155.596877
	 B(13,14,19)      =         1.803015	     103.305155
	 B(14,12,17)      =         2.930085	     167.881531
	 B(14,13,18)      =         2.504911	     143.520810
	 B(14,15,20)      =         1.839010	     105.367495
	 B(15,11,16)      =         2.887002	     165.413040
	 B(15,14,19)      =         1.764411	     101.093321
	 D(1,7,4,3)       =         2.831053	     162.207371
	 D(1,7,4,5)       =         0.697703	      39.975451
	 D(1,7,4,6)       =        -1.354108	     -77.584645
	 D(1,9,11,12)     =         3.046531	     174.553394
	 D(1,9,11,15)     =         3.046427	     174.547404
	 D(1,9,11,16)     =        -0.086120	      -4.934288
	 D(1,9,15,11)     =        -2.721234	    -155.915203
	 D(1,9,15,14)     =        -2.725133	    -156.138641
	 D(1,9,15,20)     =         0.346199	      19.835769
	 D(2,1,7,4)       =        -1.892486	    -108.431477
	 D(2,1,7,8)       =        -0.006768	      -0.387775
	 D(2,1,9,11)      =         0.961474	      55.088430
	 D(2,1,9,15)      =        -2.656230	    -152.190749
	 D(3,4,7,8)       =         1.478109	      84.689425
	 D(4,7,1,9)       =         2.316176	     132.707125
	 D(4,7,1,10)      =         0.185384	      10.621739
	 D(5,4,7,8)       =        -0.655240	     -37.542495
	 D(6,4,7,8)       =        -2.707051	    -155.102591
	 D(7,1,9,11)      =         2.775956	     159.050544
	 D(7,1,9,15)      =        -0.841748	     -48.228635
	 D(8,7,1,9)       =        -2.081291	    -119.249173
	 D(8,7,1,10)      =         2.071103	     118.665442
	 D(9,11,12,13)    =        -0.001467	      -0.084043
	 D(9,11,12,14)    =         0.002247	       0.128748
	 D(9,11,12,17)    =        -3.139815	    -179.898133
	 D(9,11,15,14)    =         3.139544	     179.882598
	 D(9,11,15,20)    =        -0.308270	     -17.662552
	 D(9,15,11,12)    =        -3.141540	    -179.996956
	 D(9,15,11,16)    =         0.034683	       1.987182
	 D(9,15,14,12)    =         0.005732	       0.328413
	 D(9,15,14,13)    =         0.014279	       0.818151
	 D(9,15,14,19)    =         3.136139	     179.687520
	 D(10,1,9,11)     =        -1.517333	     -86.936757
	 D(10,1,9,15)     =         1.148149	      65.784064
	 D(11,9,15,14)    =        -0.003900	      -0.223438
	 D(11,9,15,20)    =         3.067433	     175.750972
	 D(11,12,13,14)   =         0.004169	       0.238850
	 D(11,12,13,18)   =        -3.134557	    -179.596865
	 D(11,12,14,13)   =        -3.139778	    -179.896036
	 D(11,12,14,15)   =        -0.002130	      -0.122042
	 D(11,12,14,19)   =        -3.095506	    -177.359455
	 D(11,15,14,12)   =         0.002325	       0.133208
	 D(11,15,14,13)   =         0.010872	       0.622946
	 D(11,15,14,19)   =         3.132732	     179.492315
	 D(12,11,9,15)    =         0.000105	       0.005991
	 D(12,11,15,14)   =        -0.001996	      -0.114358
	 D(12,11,15,20)   =         2.833376	     162.340492
	 D(12,13,14,15)   =        -0.009541	      -0.546681
	 D(12,13,14,19)   =        -3.131235	    -179.406571
	 D(12,14,13,18)   =         0.004823	       0.276327
	 D(12,14,15,20)   =        -3.065898	    -175.663005
	 D(13,12,11,15)   =        -0.001376	      -0.078838
	 D(13,12,11,16)   =         3.131171	     179.402889
	 D(13,12,14,15)   =         3.137648	     179.773994
	 D(13,12,14,19)   =         0.044272	       2.536581
	 D(13,14,12,17)   =         0.004009	       0.229713
	 D(13,14,15,20)   =        -3.057350	    -175.173267
	 D(14,12,11,15)   =         0.002338	       0.133953
	 D(14,12,11,16)   =         3.134885	     179.615680
	 D(14,12,13,18)   =        -3.138725	    -179.835715
	 D(14,13,12,17)   =        -3.140722	    -179.950093
	 D(14,15,11,16)   =        -3.108959	    -178.130220
	 D(15,9,11,16)    =        -3.132546	    -179.481692
	 D(15,11,12,17)   =        -3.139724	    -179.892929
	 D(15,14,12,17)   =        -3.141528	    -179.996293
	 D(15,14,13,18)   =        -0.004719	      -0.270353
	 D(16,11,12,17)   =        -0.007177	      -0.411201
	 D(16,11,15,20)   =        -0.273587	     -15.675371
	 D(17,12,13,18)   =         0.003738	       0.214192
	 D(17,12,14,19)   =         0.048281	       2.766294
	 D(18,13,14,19)   =        -3.126413	    -179.130244
	 D(19,14,15,20)   =         0.064509	       3.696102

	Current energy   :      -460.3139781925

	Generating empirical Hessian (Schlegel '84) for each fragment.
	Taking PRFO optimization step.
	Maximizing along 1 lowest eigenvalue of Hessian.

 RFO min eigenvalues
 -0.123477 -0.000000 -0.000000 -0.000000 -0.000000 -0.000000 -0.000000 -0.000000
 -0.000000 -0.000000 -0.000000 -0.000000 -0.000000 -0.000000 -0.000000 -0.000000
 -0.000000 -0.000000 -0.000000 -0.000000 -0.000000 -0.000000 -0.000000 -0.000000
 -0.000000 -0.000000 -0.000000 -0.000000 -0.000000 -0.000000 -0.000000 -0.000000
 -0.000000 -0.000000 -0.000000 -0.000000 -0.000000 -0.000000 -0.000000 -0.000000
 -0.000000 -0.000000  0.000000  0.000000  0.000000  0.000000  0.000000  0.000000
  0.000000  0.000000  0.000000  0.000000  0.000000  0.000000  0.000000  0.000000
  0.000000  0.000000  0.000000  0.000000  0.000000  0.000000  0.000000  0.000000
  0.000000  0.000000  0.000000  0.000000  0.000000  0.000000  0.000000  0.000000
  0.000000  0.000000  0.000000  0.000000  0.000000  0.000000  0.000000  0.000000
  0.000000  0.000000  0.000000  0.000000  0.000000  0.000000  0.001181  0.001894
  0.002300  0.002300  0.002300  0.002300  0.002301  0.002304  0.002306  0.002308
  0.002346  0.002476  0.033078  0.049003  0.052900  0.070638  0.074610  0.078552
  0.096555  0.108629  0.121538  0.129418  0.130845  0.140406  0.154015  0.158885
  0.159796  0.159967  0.159998  0.159999  0.160000  0.160000  0.163161  0.173743
  0.178362  0.180875  0.185372  0.216362  0.226927  0.233021  0.267643  0.285456
  0.305636  0.311368  0.316923  0.318783  0.321883  0.326354  0.333356  0.341540
  0.346572  0.346911  0.412147  0.649406

 RFO max eigenvalues
 -0.000000  0.000000
	Change in coordinate exceeds step limit of    0.50000.
	Scaling displacements by    0.67693
	|RFO target step|  :        0.5000000000
	RFO gradient       :       -0.1671719791
	RFO hessian        :        0.1234670371
	Projected Delta(E) :       -0.0545220879

	Back-transformation to cartesian coordinates...
	Could not converge backtransformation.
	Using first guess instead.

	--- Internal Coordinate Step in ANG or DEG, aJ/ANG or AJ/DEG ---
	 ---------------------------------------------------------------------------
	   Coordinate                Previous        Force       Change         New 
	   ----------                --------       ------       ------       ------
	    1 H(2,8)          =      1.336020     0.006805     0.001816     1.337837
	    2 R(1,2)          =      1.306821     0.015805     0.000996     1.307817
	    3 R(1,7)          =      1.674837     0.037062     0.005155     1.679993
	    4 R(1,9)          =      1.523184    -0.245956    -0.025203     1.497981
	    5 R(1,10)         =      1.103159    -0.004736    -0.000219     1.102940
	    6 R(3,4)          =      1.091386    -0.019947    -0.001839     1.089547
	    7 R(4,5)          =      1.095774    -0.003148    -0.000285     1.095488
	    8 R(4,6)          =      1.112219    -0.110652    -0.010723     1.101496
	    9 R(4,7)          =      1.428461    -0.025395    -0.001890     1.426571
	   10 R(7,8)          =      1.146604    -0.016126    -0.001660     1.144945
	   11 R(9,11)         =      1.825395    -0.707631    -0.118204     1.707191
	   12 R(9,15)         =      1.816689    -0.645013    -0.107452     1.709237
	   13 R(11,12)        =      1.953314     0.065440     0.011909     1.965223
	   14 R(11,15)        =      1.790798    -0.437718    -0.074040     1.716758
	   15 R(11,16)        =      1.116994    -0.014500    -0.001374     1.115620
	   16 R(12,13)        =      1.868637    -0.426322    -0.075335     1.793302
	   17 R(12,14)        =      1.677794    -0.757648    -0.108008     1.569786
	   18 R(12,17)        =      1.124205    -0.133710    -0.013354     1.110851
	   19 R(13,14)        =      1.859080    -0.431925    -0.074944     1.784136
	   20 R(13,18)        =      1.091064     0.009728     0.001087     1.092152
	   21 R(14,15)        =      1.966627    -0.024477    -0.003808     1.962818
	   22 R(14,19)        =      1.124283    -0.120640    -0.011846     1.112438
	   23 R(15,20)        =      1.113922     0.000370     0.000037     1.113959
	   24 B(1,7,4)        =    117.640288    -0.000348    -0.502988   117.137300
	   25 B(1,7,8)        =     68.208419     0.000148     0.288781    68.497199
	   26 B(1,9,11)       =    130.320343    -0.000437    -0.793728   129.526615
	   27 B(1,9,15)       =    169.773982    -0.000294    -0.707917   169.066064
	   28 B(2,1,7)        =     92.850270    -0.000273    -0.416054    92.434216
	   29 B(2,1,9)        =    115.665759     0.000440     0.814523   116.480281
	   30 B(2,1,10)       =    117.745469     0.000225     0.649022   118.394491
	   31 B(3,4,5)        =    110.844333    -0.000042    -0.163907   110.680426
	   32 B(3,4,6)        =    110.676581    -0.000153    -0.344254   110.332327
	   33 B(3,4,7)        =    109.594641    -0.000245    -0.518825   109.075816
	   34 B(4,7,8)        =    115.277768    -0.000035     0.039570   115.317338
	   35 B(5,4,6)        =    108.193082     0.000064     0.282899   108.475981
	   36 B(5,4,7)        =    110.191245     0.000067     0.147491   110.338736
	   37 B(6,4,7)        =    107.267475     0.000325     0.626800   107.894275
	   38 B(7,1,9)        =    110.772741    -0.000120    -0.281527   110.491214
	   39 B(7,1,10)       =    101.431209     0.000260     0.345896   101.777105
	   40 B(9,1,10)       =    114.614435    -0.000534    -1.127458   113.486977
	   41 B(9,11,12)      =    149.461139    -0.000781    -1.250601   148.210538
	   42 B(9,11,15)      =     60.305634    -0.000206    -0.412165    59.893469
	   43 B(9,11,16)      =    105.115214     0.000612     1.081494   106.196708
	   44 B(9,15,11)      =     60.790725    -0.000495    -1.015344    59.775382
	   45 B(9,15,14)      =    148.334946    -0.000719    -1.167411   147.167534
	   46 B(9,15,20)      =    106.223651     0.000461     0.850047   107.073698
	   47 B(11,9,15)      =     58.903640     0.000701     1.427509    60.331149
	   48 B(11,12,13)     =    154.204078     0.000845     1.019621   155.223699
	   49 B(11,12,14)     =     91.244575     0.000327     0.306912    91.551487
	   50 B(11,12,17)     =    100.873864    -0.000391    -0.442055   100.431809
	   51 B(11,15,14)     =     87.544420    -0.000223    -0.151355    87.393065
	   52 B(11,15,20)     =    166.439519    -0.000038    -0.181088   166.258431
	   53 B(12,11,15)     =     89.155505    -0.000575    -0.838074    88.317430
	   54 B(12,11,16)     =    105.422482     0.000169     0.169823   105.592305
	   55 B(12,13,14)     =     53.497687    -0.001091    -1.443551    52.054136
	   56 B(12,13,18)     =     90.023442     0.000912     1.362077    91.385519
	   57 B(12,14,13)     =     63.542617     0.000573     0.730952    64.273569
	   58 B(12,14,15)     =     92.055224     0.000471     0.682576    92.737800
	   59 B(12,14,19)     =    166.836011    -0.000814    -1.547674   165.288337
	   60 B(13,12,14)     =     62.959696     0.000518     0.712599    63.672295
	   61 B(13,12,17)     =    104.921924    -0.000454    -0.577506   104.344418
	   62 B(13,14,15)     =    155.596877     0.001044     1.413890   157.010766
	   63 B(13,14,19)     =    103.305155    -0.001386    -2.276286   101.028869
	   64 B(14,12,17)     =    167.881531     0.000064     0.135172   168.016703
	   65 B(14,13,18)     =    143.520810    -0.000179    -0.081265   143.439544
	   66 B(14,15,20)     =    105.367495     0.000257     0.320054   105.687549
	   67 B(15,11,16)     =    165.413040     0.000405     0.665752   166.078792
	   68 B(15,14,19)     =    101.093321     0.000342     0.862723   101.956044
	   69 D(1,7,4,3)      =    162.207371     0.000001     0.052603   162.259975
	   70 D(1,7,4,5)      =     39.975451     0.000040     0.501412    40.476863
	   71 D(1,7,4,6)      =    -77.584645    -0.000029    -0.287745   -77.872390
	   72 D(1,9,11,12)    =    174.553394    -0.000010    -0.016409   174.536986
	   73 D(1,9,11,15)    =    174.547404    -0.000028    -0.311989   174.235415
	   74 D(1,9,11,16)    =     -4.934288    -0.000024    -0.215743    -5.150031
	   75 D(1,9,15,11)    =   -155.915203     0.000001     0.022620  -155.892583
	   76 D(1,9,15,14)    =   -156.138641    -0.000012    -0.226212  -156.364853
	   77 D(1,9,15,20)    =     19.835769    -0.000006    -0.094550    19.741219
	   78 D(2,1,7,4)      =   -108.431477    -0.000009    -0.235046  -108.666523
	   79 D(2,1,7,8)      =     -0.387775     0.000016     0.054916    -0.332859
	   80 D(2,1,9,11)     =     55.088430     0.000052     0.652016    55.740445
	   81 D(2,1,9,15)     =   -152.190749     0.000044     0.536561  -151.654188
	   82 D(3,4,7,8)      =     84.689425    -0.000006    -0.120490    84.568935
	   83 D(4,7,1,9)      =    132.707125    -0.000084    -0.867186   131.839938
	   84 D(4,7,1,10)     =     10.621739     0.000039     0.385933    11.007672
	   85 D(5,4,7,8)      =    -37.542495     0.000033     0.328318   -37.214177
	   86 D(6,4,7,8)      =   -155.102591    -0.000036    -0.460838  -155.563429
	   87 D(7,1,9,11)     =    159.050544     0.000010     0.388829   159.439373
	   88 D(7,1,9,15)     =    -48.228635     0.000003     0.273374   -47.955261
	   89 D(8,7,1,9)      =   -119.249173    -0.000059    -0.577225  -119.826398
	   90 D(8,7,1,10)     =    118.665442     0.000064     0.675895   119.341336
	   91 D(9,11,12,13)   =     -0.084043    -0.000011    -0.197947    -0.281990
	   92 D(9,11,12,14)   =      0.128748    -0.000016    -0.268061    -0.139313
	   93 D(9,11,12,17)   =   -179.898133    -0.000015    -0.243041  -180.141174
	   94 D(9,11,15,14)   =    179.882598    -0.000007    -0.138919   179.743679
	   95 D(9,11,15,20)   =    -17.662552    -0.000010    -0.177930   -17.840482
	   96 D(9,15,11,12)   =   -179.996956     0.000009     0.155891  -179.841065
	   97 D(9,15,11,16)   =      1.987182     0.000027     0.466528     2.453709
	   98 D(9,15,14,12)   =      0.328413     0.000011     0.202081     0.530494
	   99 D(9,15,14,13)   =      0.818151     0.000006     0.111901     0.930053
	  100 D(9,15,14,19)   =    179.687520     0.000001     0.114745   179.802265
	  101 D(10,1,9,11)    =    -86.936757    -0.000009    -0.047730   -86.984487
	  102 D(10,1,9,15)    =     65.784064    -0.000016    -0.163185    65.620879
	  103 D(11,9,15,14)   =     -0.223438    -0.000013    -0.248832    -0.472270
	  104 D(11,9,15,20)   =    175.750972    -0.000007    -0.117170   175.633802
	  105 D(11,12,13,14)  =      0.238850    -0.000006    -0.079720     0.159131
	  106 D(11,12,13,18)  =   -179.596865    -0.000010    -0.146344  -179.743209
	  107 D(11,12,14,13)  =   -179.896036    -0.000003    -0.037252  -179.933288
	  108 D(11,12,14,15)  =     -0.122042     0.000001     0.015534    -0.106507
	  109 D(11,12,14,19)  =   -177.359455     0.000002     0.059341  -177.300114
	  110 D(11,15,14,12)  =      0.133208    -0.000001    -0.011204     0.122004
	  111 D(11,15,14,13)  =      0.622946    -0.000005    -0.101384     0.521562
	  112 D(11,15,14,19)  =    179.492315    -0.000010    -0.098540   179.393775
	  113 D(12,11,9,15)   =      0.005991     0.000018     0.295580     0.301571
	  114 D(12,11,15,14)  =     -0.114358     0.000002     0.016972    -0.097385
	  115 D(12,11,15,20)  =    162.340492    -0.000001    -0.022039   162.318453
	  116 D(12,13,14,15)  =     -0.546681     0.000006     0.103664    -0.443016
	  117 D(12,13,14,19)  =   -179.406571     0.000009     0.087638  -179.318934
	  118 D(12,14,13,18)  =      0.276327    -0.000007    -0.112425     0.163902
	  119 D(12,14,15,20)  =   -175.663005     0.000004     0.059791  -175.603215
	  120 D(13,12,11,15)  =     -0.078838     0.000004     0.057848    -0.020990
	  121 D(13,12,11,16)  =    179.402889     0.000003     0.003077   179.405966
	  122 D(13,12,14,15)  =    179.773994     0.000004     0.052786   179.826780
	  123 D(13,12,14,19)  =      2.536581     0.000006     0.096592     2.633173
	  124 D(13,14,12,17)  =      0.229713    -0.000009    -0.154187     0.075526
	  125 D(13,14,15,20)  =   -175.173267    -0.000001    -0.030389  -175.203656
	  126 D(14,12,11,15)  =      0.133953    -0.000001    -0.012266     0.121687
	  127 D(14,12,11,16)  =    179.615680    -0.000002    -0.067038   179.548643
	  128 D(14,12,13,18)  =   -179.835715    -0.000004    -0.066624  -179.902340
	  129 D(14,13,12,17)  =   -179.950093    -0.000002    -0.033721  -179.983814
	  130 D(14,15,11,16)  =   -178.130220     0.000020     0.327609  -177.802611
	  131 D(15,9,11,16)   =   -179.481692     0.000004     0.096246  -179.385446
	  132 D(15,11,12,17)  =   -179.892929     0.000001     0.012755  -179.880174
	  133 D(15,14,12,17)  =   -179.996293    -0.000005    -0.101400  -180.097694
	  134 D(15,14,13,18)  =     -0.270353    -0.000001    -0.008761    -0.279114
	  135 D(16,11,12,17)  =     -0.411201    -0.000001    -0.042017    -0.453218
	  136 D(16,11,15,20)  =    -15.675371     0.000017     0.288597   -15.386773
	  137 D(17,12,13,18)  =      0.214192    -0.000006    -0.100346     0.113846
	  138 D(17,12,14,19)  =      2.766294    -0.000003    -0.057594     2.708700
	  139 D(18,13,14,19)  =   -179.130244     0.000002    -0.024788  -179.155032
	  140 D(19,14,15,20)  =      3.696102    -0.000005    -0.027545     3.668556
	 ---------------------------------------------------------------------------
	Successfully symmetrized geometry.

  ==> Convergence Check <==

  Measures of convergence in internal coordinates in au.
  Criteria marked as inactive (o), active & met (*), and active & unmet ( ).
  --------------------------------------------------------------------------------------------- ~
   Step     Total Energy     Delta E     MAX Force     RMS Force      MAX Disp      RMS Disp    ~
  --------------------------------------------------------------------------------------------- ~
    Convergence Criteria    1.00e-06 *    3.00e-04 *             o    1.20e-03 *             o  ~
  --------------------------------------------------------------------------------------------- ~
      1    -460.31397819   -4.60e+02      9.20e-02      1.56e-02 o    2.23e-01      3.86e-02 o  ~
  ---------------------------------------------------------------------------------------------

	Writing optimization data to binary file.
	Structure for next step:
	Cartesian Geometry (in Angstrom)
	    C     0.3971895728   0.5806682993  -1.6920825886
	    O    -0.6552054634   0.5490021171  -2.4678706676
	    H     1.4446639520   3.7736888223  -2.8889838311
	    C     1.6390750133   2.7376080380  -2.6135674265
	    H     1.7807447703   2.1198295310  -3.5070850241
	    H     2.5478757334   2.6701272338  -1.9948422286
	    O     0.5449767353   2.2475699069  -1.8403163721
	    H    -0.3422663993   1.8495165570  -2.4446771867
	    C     0.1827690598   0.1985576545  -0.2596151309
	    H     1.3605701660   0.2320483175  -2.1005422932
	    C    -0.4799037682  -1.2317211330   0.3958757439
	    C    -0.8996195936  -2.3000026592   1.9910917902
	    C    -0.9492768782  -2.6506988507   3.7490673708
	    C    -0.2897774185  -1.2055336993   2.9368495558
	    C     0.1894088909  -0.0386165314   1.4330738873
	    H    -0.8321052742  -1.8377427929  -0.4720530314
	    H    -1.3735022922  -3.1873815582   1.5199401630
	    H    -1.4365568319  -3.6116779225   3.5705371694
	    H     0.0768560030  -0.6200548023   3.8088083317
	    H     0.7397965845   0.8198308525   1.8814552832
			--------------------------
			 OPTKING Finished Execution 
			--------------------------

    Structure for next step:
    Molecular point group: c1
    Full point group: C1

    Geometry (in Angstrom), charge = 0, multiplicity = 1:

    C            0.399272671725     0.580382009232    -1.690135955369
    O           -0.653122364513     0.548715827039    -2.465924034385
    H            1.446747050973     3.773402532189    -2.887037197905
    C            1.641158112266     2.737321747919    -2.611620793303
    H            1.782827869264     2.119543240933    -3.505138390818
    H            2.549958832304     2.669840943683    -1.992895595321
    O            0.547059834268     2.247283616836    -1.838369738866
    H           -0.340183300406     1.849230266926    -2.442730553426
    C            0.184852158733     0.198271364434    -0.257668497642
    H            1.362653264881     0.231762027456    -2.098595659926
    C           -0.477820669282    -1.232007423071     0.397822377111
    C           -0.897536494691    -2.300288949257     1.993038423390
    C           -0.947193779280    -2.650985140785     3.751014004033
    C           -0.287694319577    -1.205819989341     2.938796189054
    C            0.191491989813    -0.038902821514     1.435020520585
    H           -0.830022175317    -1.838029083022    -0.470106398163
    H           -1.371419193229    -3.187667848284     1.521886796205
    H           -1.434473732969    -3.611964212571     3.572483802679
    H            0.078939101934    -0.620341092421     3.810754964902
    H            0.741879683412     0.819544562407     1.883401916440

gradient() will perform analytic gradient computation.

*** tstart() called on localhost.localdomain
*** at Fri Mar  8 15:21:29 2019

   => Loading Basis Set <=

    Name: 6-311++G(D,P)
    Role: ORBITAL
    Keyword: BASIS
    atoms 1, 4, 9, 11-15       entry C          line   119 file /root/psi4conda/share/psi4/basis/6-311ppg_d_p_.gbs 
    atoms 2, 7                 entry O          line   161 file /root/psi4conda/share/psi4/basis/6-311ppg_d_p_.gbs 
    atoms 3, 5-6, 8, 10, 16-20 entry H          line    42 file /root/psi4conda/share/psi4/basis/6-311ppg_d_p_.gbs 


         ---------------------------------------------------------
                                   SCF
            by Justin Turney, Rob Parrish, Andy Simmonett
                             and Daniel Smith
                              RKS Reference
                       32 Threads,    500 MiB Core
         ---------------------------------------------------------

  ==> Geometry <==

    Molecular point group: c1
    Full point group: C1

    Geometry (in Angstrom), charge = 0, multiplicity = 1:

       Center              X                  Y                   Z               Mass       
    ------------   -----------------  -----------------  -----------------  -----------------
         C            0.399272671725     0.580382009232    -1.690135955369    12.000000000000
         O           -0.653122364513     0.548715827039    -2.465924034385    15.994914619560
         H            1.446747050973     3.773402532189    -2.887037197905     1.007825032070
         C            1.641158112266     2.737321747919    -2.611620793303    12.000000000000
         H            1.782827869264     2.119543240933    -3.505138390818     1.007825032070
         H            2.549958832304     2.669840943683    -1.992895595321     1.007825032070
         O            0.547059834268     2.247283616836    -1.838369738866    15.994914619560
         H           -0.340183300406     1.849230266926    -2.442730553426     1.007825032070
         C            0.184852158733     0.198271364434    -0.257668497642    12.000000000000
         H            1.362653264881     0.231762027456    -2.098595659926     1.007825032070
         C           -0.477820669282    -1.232007423071     0.397822377111    12.000000000000
         C           -0.897536494691    -2.300288949257     1.993038423390    12.000000000000
         C           -0.947193779280    -2.650985140785     3.751014004033    12.000000000000
         C           -0.287694319577    -1.205819989341     2.938796189054    12.000000000000
         C            0.191491989813    -0.038902821514     1.435020520585    12.000000000000
         H           -0.830022175317    -1.838029083022    -0.470106398163     1.007825032070
         H           -1.371419193229    -3.187667848284     1.521886796205     1.007825032070
         H           -1.434473732969    -3.611964212571     3.572483802679     1.007825032070
         H            0.078939101934    -0.620341092421     3.810754964902     1.007825032070
         H            0.741879683412     0.819544562407     1.883401916440     1.007825032070

  Running in c1 symmetry.

  Rotational constants: A =      0.14021  B =      0.01549  C =      0.01428 [cm^-1]
  Rotational constants: A =   4203.30051  B =    464.23173  C =    428.05444 [MHz]
  Nuclear repulsion =  455.061746453574585

  Charge       = 0
  Multiplicity = 1
  Electrons    = 74
  Nalpha       = 37
  Nbeta        = 37

  ==> Algorithm <==

  SCF Algorithm Type is DF.
  DIIS enabled.
  MOM disabled.
  Fractional occupation disabled.
  Guess Type is READ.
  Energy threshold   = 1.00e-08
  Density threshold  = 1.00e-08
  Integral threshold = 0.00e+00

  ==> Primary Basis <==

  Basis Set: 6-311++G(D,P)
    Blend: 6-311++G(D,P)
    Number of shells: 150
    Number of basis function: 290
    Number of Cartesian functions: 300
    Spherical Harmonics?: true
    Max angular momentum: 2

  ==> DFT Potential <==

   => Composite Functional: M06-2X <= 

    Hybrid M06-2X Meta-GGA XC Functional

    Y. Zhao and D. G. Truhlar,  Theor. Chem. Acc., 120, 215, 2008


    Deriv               =              1
    GGA                 =           TRUE
    Meta                =           TRUE

    Exchange Hybrid     =           TRUE
    MP2 Hybrid          =          FALSE

   => Exchange Functionals <=

    1.0000   XC_HYB_MGGA_X_M06_2X

   => Exact (HF) Exchange <=

    0.5400               HF 

   => Correlation Functionals <=

    1.0000   XC_MGGA_C_M06_2X

   => Molecular Quadrature <=

    Radial Scheme       =       TREUTLER
    Pruning Scheme      =           FLAT
    Nuclear Scheme      =       TREUTLER

    BS radius alpha     =              1
    Pruning alpha       =              1
    Radial Points       =             75
    Spherical Points    =            302
    Total Points        =         453000
    Total Blocks        =           3386
    Max Points          =            256
    Max Functions       =            240

   => Loading Basis Set <=

    Name: (6-311++G(D,P) AUX)
    Role: JKFIT
    Keyword: DF_BASIS_SCF
    atoms 1, 4, 9, 11-15       entry C          line   162 file /root/psi4conda/share/psi4/basis/aug-cc-pvtz-jkfit.gbs 
    atoms 2, 7                 entry O          line   286 file /root/psi4conda/share/psi4/basis/aug-cc-pvtz-jkfit.gbs 
    atoms 3, 5-6, 8, 10, 16-20 entry H          line    70 file /root/psi4conda/share/psi4/basis/aug-cc-pvtz-jkfit.gbs 

  Reading orbitals from file 180, no projection.

  ==> Pre-Iterations <==

   -------------------------------------------------------
    Irrep   Nso     Nmo     Nalpha   Nbeta   Ndocc  Nsocc
   -------------------------------------------------------
     A        290     290       0       0       0       0
   -------------------------------------------------------
    Total     290     290      37      37      37       0
   -------------------------------------------------------

  ==> Integral Setup <==

  ==> DiskDFJK: Density-Fitted J/K Matrices <==

    J tasked:                  Yes
    K tasked:                  Yes
    wK tasked:                  No
    OpenMP threads:             32
    Integrals threads:          32
    Memory (MB):               375
    Algorithm:                Disk
    Integral Cache:           NONE
    Schwarz Cutoff:          1E-12
    Fitting Condition:       1E-12

   => Auxiliary Basis Set <=

  Basis Set: (6-311++G(D,P) AUX)
    Blend: AUG-CC-PVTZ-JKFIT
    Number of shells: 440
    Number of basis function: 1500
    Number of Cartesian functions: 1860
    Spherical Harmonics?: true
    Max angular momentum: 4

  Minimum eigenvalue in the overlap matrix is 2.6570391878E-06.
  Using Symmetric Orthogonalization.

  SCF Guess: Orbitals guess was supplied from a previous computation.

  ==> Iterations <==

                           Total Energy        Delta E     RMS |[F,P]|

   @DF-RKS iter   0:  -460.67177951245526   -4.60672e+02   6.59003e-03 
   @DF-RKS iter   1:  -460.37919990841687    2.92580e-01   2.77374e-03 
   @DF-RKS iter   2:  -460.36425195407452    1.49480e-02   4.05165e-03 DIIS
   @DF-RKS iter   3:  -460.39365054067957   -2.93986e-02   6.14112e-04 DIIS
   @DF-RKS iter   4:  -460.39419317814020   -5.42637e-04   2.18736e-04 DIIS
   @DF-RKS iter   5:  -460.39425640638876   -6.32282e-05   1.37809e-04 DIIS
   @DF-RKS iter   6:  -460.39429388272077   -3.74763e-05   2.81476e-05 DIIS
   @DF-RKS iter   7:  -460.39430120676400   -7.32404e-06   2.44141e-05 DIIS
   @DF-RKS iter   8:  -460.39430457558518   -3.36882e-06   1.25372e-05 DIIS
   @DF-RKS iter   9:  -460.39430653868033   -1.96310e-06   8.93108e-06 DIIS
   @DF-RKS iter  10:  -460.39430791973291   -1.38105e-06   4.73590e-06 DIIS
   @DF-RKS iter  11:  -460.39430893422190   -1.01449e-06   3.50599e-06 DIIS
   @DF-RKS iter  12:  -460.39430938203657   -4.47815e-07   2.25717e-06 DIIS
   @DF-RKS iter  13:  -460.39430948721156   -1.05175e-07   1.40567e-06 DIIS
   @DF-RKS iter  14:  -460.39430950504703   -1.78355e-08   3.83811e-07 DIIS
   @DF-RKS iter  15:  -460.39430950638473   -1.33770e-09   2.90295e-07 DIIS
   @DF-RKS iter  16:  -460.39430950667776   -2.93028e-10   2.15549e-07 DIIS
   @DF-RKS iter  17:  -460.39430950694111   -2.63356e-10   1.04790e-07 DIIS
   @DF-RKS iter  18:  -460.39430950703837   -9.72591e-11   6.15489e-08 DIIS
   @DF-RKS iter  19:  -460.39430950708152   -4.31442e-11   5.17087e-08 DIIS
   @DF-RKS iter  20:  -460.39430950709425   -1.27329e-11   2.17803e-08 DIIS
   @DF-RKS iter  21:  -460.39430950709652   -2.27374e-12   1.44121e-08 DIIS
   @DF-RKS iter  22:  -460.39430950709715   -6.25278e-13   5.71737e-09 DIIS

  ==> Post-Iterations <==

    Orbital Energies [Eh]
    ---------------------

    Doubly Occupied:                                                      

       1A    -19.675952     2A    -19.583542     3A    -10.673313  
       4A    -10.654183     5A    -10.636480     6A    -10.634137  
       7A    -10.621447     8A    -10.609361     9A    -10.596993  
      10A    -10.595399    11A     -1.216318    12A     -1.106791  
      13A     -0.904463    14A     -0.861082    15A     -0.812627  
      16A     -0.772363    17A     -0.723682    18A     -0.678432  
      19A     -0.653284    20A     -0.629989    21A     -0.614542  
      22A     -0.570827    23A     -0.561583    24A     -0.540147  
      25A     -0.520472    26A     -0.507786    27A     -0.491281  
      28A     -0.451646    29A     -0.443189    30A     -0.384277  
      31A     -0.369134    32A     -0.354673    33A     -0.342632  
      34A     -0.323629    35A     -0.305181    36A     -0.248976  
      37A     -0.223117  

    Virtual:                                                              

      38A     -0.076326    39A     -0.057547    40A     -0.013332  
      41A     -0.006419    42A     -0.005497    43A      0.001210  
      44A      0.004328    45A      0.014479    46A      0.018461  
      47A      0.022855    48A      0.035822    49A      0.042418  
      50A      0.049066    51A      0.053212    52A      0.059109  
      53A      0.062785    54A      0.071130    55A      0.074812  
      56A      0.085683    57A      0.093073    58A      0.096435  
      59A      0.096989    60A      0.103847    61A      0.106858  
      62A      0.112999    63A      0.117940    64A      0.123718  
      65A      0.130005    66A      0.131234    67A      0.133265  
      68A      0.141366    69A      0.147213    70A      0.148025  
      71A      0.150914    72A      0.154789    73A      0.164300  
      74A      0.165427    75A      0.171581    76A      0.178631  
      77A      0.185281    78A      0.186169    79A      0.195335  
      80A      0.197445    81A      0.207338    82A      0.211825  
      83A      0.217866    84A      0.220690    85A      0.232351  
      86A      0.244075    87A      0.253812    88A      0.257945  
      89A      0.262847    90A      0.265825    91A      0.272055  
      92A      0.277994    93A      0.284122    94A      0.295025  
      95A      0.307592    96A      0.312771    97A      0.319591  
      98A      0.327106    99A      0.337890   100A      0.338227  
     101A      0.351290   102A      0.352117   103A      0.365299  
     104A      0.370481   105A      0.373969   106A      0.403742  
     107A      0.411497   108A      0.430878   109A      0.449303  
     110A      0.472809   111A      0.483955   112A      0.504753  
     113A      0.540685   114A      0.562065   115A      0.568897  
     116A      0.574569   117A      0.582076   118A      0.589840  
     119A      0.597716   120A      0.602524   121A      0.603596  
     122A      0.610790   123A      0.620070   124A      0.633350  
     125A      0.636119   126A      0.655289   127A      0.659610  
     128A      0.663220   129A      0.684176   130A      0.690391  
     131A      0.697216   132A      0.702872   133A      0.717075  
     134A      0.730223   135A      0.737456   136A      0.760694  
     137A      0.770553   138A      0.784725   139A      0.786440  
     140A      0.826953   141A      0.842483   142A      0.852778  
     143A      0.872744   144A      0.888308   145A      0.918123  
     146A      0.919801   147A      0.935293   148A      0.968187  
     149A      0.975786   150A      0.989320   151A      0.998333  
     152A      1.030204   153A      1.047424   154A      1.076124  
     155A      1.084925   156A      1.106841   157A      1.116798  
     158A      1.133562   159A      1.149856   160A      1.167598  
     161A      1.216633   162A      1.235686   163A      1.256538  
     164A      1.263938   165A      1.270141   166A      1.309291  
     167A      1.315877   168A      1.323027   169A      1.332616  
     170A      1.341494   171A      1.389425   172A      1.394461  
     173A      1.442485   174A      1.444260   175A      1.466310  
     176A      1.475364   177A      1.498621   178A      1.533606  
     179A      1.542595   180A      1.557084   181A      1.581375  
     182A      1.588627   183A      1.618021   184A      1.627966  
     185A      1.644878   186A      1.654307   187A      1.663390  
     188A      1.696712   189A      1.715517   190A      1.731017  
     191A      1.738260   192A      1.745054   193A      1.754962  
     194A      1.761522   195A      1.772010   196A      1.780373  
     197A      1.792241   198A      1.829764   199A      1.839879  
     200A      1.870848   201A      1.890303   202A      1.917705  
     203A      1.936827   204A      1.951033   205A      1.964502  
     206A      1.976790   207A      1.983536   208A      2.020915  
     209A      2.051736   210A      2.053885   211A      2.081438  
     212A      2.110307   213A      2.144051   214A      2.166536  
     215A      2.170440   216A      2.192036   217A      2.198589  
     218A      2.268799   219A      2.309018   220A      2.352273  
     221A      2.413696   222A      2.441023   223A      2.449784  
     224A      2.512051   225A      2.520273   226A      2.544178  
     227A      2.553501   228A      2.587078   229A      2.594683  
     230A      2.609633   231A      2.627239   232A      2.690929  
     233A      2.696434   234A      2.717900   235A      2.730300  
     236A      2.742892   237A      2.746174   238A      2.774003  
     239A      2.785024   240A      2.808018   241A      2.820691  
     242A      2.835484   243A      2.845653   244A      2.871490  
     245A      2.916309   246A      2.938764   247A      2.948210  
     248A      2.967075   249A      3.009669   250A      3.042153  
     251A      3.061314   252A      3.135078   253A      3.161379  
     254A      3.177357   255A      3.192685   256A      3.208914  
     257A      3.284882   258A      3.321642   259A      3.373246  
     260A      3.425424   261A      3.468864   262A      3.565862  
     263A      3.588312   264A      3.606622   265A      3.652970  
     266A      3.705812   267A      3.741806   268A      3.750445  
     269A      3.813829   270A      3.834730   271A      3.914699  
     272A      3.988431   273A      4.100689   274A      4.193043  
     275A      5.213692   276A      5.267015   277A      5.328015  
     278A      5.332510   279A      5.635870   280A      5.795231  
     281A     23.590528   282A     23.619381   283A     23.663048  
     284A     23.708395   285A     23.785394   286A     23.890281  
     287A     23.923745   288A     23.962777   289A     50.003820  
     290A     50.129162  

    Final Occupation by Irrep:
              A 
    DOCC [    37 ]

  Energy converged.

  @DF-RKS Final Energy:  -460.39430950709715

   => Energetics <=

    Nuclear Repulsion Energy =            455.0617464535745853
    One-Electron Energy =               -1525.8877992549423652
    Two-Electron Energy =                 641.0890788652624224
    DFT Exchange-Correlation Energy =     -30.6573355709918651
    Empirical Dispersion Energy =           0.0000000000000000
    VV10 Nonlocal Energy =                  0.0000000000000000
    Total Energy =                       -460.3943095070971481



Properties will be evaluated at   0.000000,   0.000000,   0.000000 [a0]

Properties computed using the SCF density matrix

  Nuclear Dipole Moment: [e a0]
     X:     3.7371      Y:     2.0809      Z:    -2.4656

  Electronic Dipole Moment: [e a0]
     X:    -2.6181      Y:    -1.8224      Z:     2.1457

  Dipole Moment: [e a0]
     X:     1.1190      Y:     0.2585      Z:    -0.3199     Total:     1.1922

  Dipole Moment: [D]
     X:     2.8442      Y:     0.6570      Z:    -0.8131     Total:     3.0302


*** tstop() called on localhost.localdomain at Fri Mar  8 15:22:03 2019
Module time:
	user time   =     951.31 seconds =      15.86 minutes
	system time =      30.29 seconds =       0.50 minutes
	total time  =         34 seconds =       0.57 minutes
Total time:
	user time   =    2435.10 seconds =      40.59 minutes
	system time =      75.55 seconds =       1.26 minutes
	total time  =         87 seconds =       1.45 minutes

*** tstart() called on localhost.localdomain
*** at Fri Mar  8 15:22:03 2019


         ------------------------------------------------------------
                                   SCF GRAD                          
                          Rob Parrish, Justin Turney,                
                       Andy Simmonett, and Alex Sokolov              
         ------------------------------------------------------------

  ==> Geometry <==

    Molecular point group: c1
    Full point group: C1

    Geometry (in Angstrom), charge = 0, multiplicity = 1:

       Center              X                  Y                   Z               Mass       
    ------------   -----------------  -----------------  -----------------  -----------------
         C            0.399272671725     0.580382009232    -1.690135955369    12.000000000000
         O           -0.653122364513     0.548715827039    -2.465924034385    15.994914619560
         H            1.446747050973     3.773402532189    -2.887037197905     1.007825032070
         C            1.641158112266     2.737321747919    -2.611620793303    12.000000000000
         H            1.782827869264     2.119543240933    -3.505138390818     1.007825032070
         H            2.549958832304     2.669840943683    -1.992895595321     1.007825032070
         O            0.547059834268     2.247283616836    -1.838369738866    15.994914619560
         H           -0.340183300406     1.849230266926    -2.442730553426     1.007825032070
         C            0.184852158733     0.198271364434    -0.257668497642    12.000000000000
         H            1.362653264881     0.231762027456    -2.098595659926     1.007825032070
         C           -0.477820669282    -1.232007423071     0.397822377111    12.000000000000
         C           -0.897536494691    -2.300288949257     1.993038423390    12.000000000000
         C           -0.947193779280    -2.650985140785     3.751014004033    12.000000000000
         C           -0.287694319577    -1.205819989341     2.938796189054    12.000000000000
         C            0.191491989813    -0.038902821514     1.435020520585    12.000000000000
         H           -0.830022175317    -1.838029083022    -0.470106398163     1.007825032070
         H           -1.371419193229    -3.187667848284     1.521886796205     1.007825032070
         H           -1.434473732969    -3.611964212571     3.572483802679     1.007825032070
         H            0.078939101934    -0.620341092421     3.810754964902     1.007825032070
         H            0.741879683412     0.819544562407     1.883401916440     1.007825032070

  Nuclear repulsion =  455.061746453574585

  ==> Basis Set <==

  Basis Set: 6-311++G(D,P)
    Blend: 6-311++G(D,P)
    Number of shells: 150
    Number of basis function: 290
    Number of Cartesian functions: 300
    Spherical Harmonics?: true
    Max angular momentum: 2

  ==> DFJKGrad: Density-Fitted SCF Gradients <==

    Gradient:                    1
    J tasked:                  Yes
    K tasked:                  Yes
    wK tasked:                  No
    OpenMP threads:             32
    Integrals threads:          32
    Memory (MB):               375
    Schwarz Cutoff:          0E+00
    Fitting Condition:       1E-12

   => Auxiliary Basis Set <=

  Basis Set: (6-311++G(D,P) AUX)
    Blend: AUG-CC-PVTZ-JKFIT
    Number of shells: 440
    Number of basis function: 1500
    Number of Cartesian functions: 1860
    Spherical Harmonics?: true
    Max angular momentum: 4

  ==> DFT Potential <==

   => Composite Functional: M06-2X <= 

    Hybrid M06-2X Meta-GGA XC Functional

    Y. Zhao and D. G. Truhlar,  Theor. Chem. Acc., 120, 215, 2008


    Deriv               =              1
    GGA                 =           TRUE
    Meta                =           TRUE

    Exchange Hybrid     =           TRUE
    MP2 Hybrid          =          FALSE

   => Exchange Functionals <=

    1.0000   XC_HYB_MGGA_X_M06_2X

   => Exact (HF) Exchange <=

    0.5400               HF 

   => Correlation Functionals <=

    1.0000   XC_MGGA_C_M06_2X

   => Molecular Quadrature <=

    Radial Scheme       =       TREUTLER
    Pruning Scheme      =           FLAT
    Nuclear Scheme      =       TREUTLER

    BS radius alpha     =              1
    Pruning alpha       =              1
    Radial Points       =             75
    Spherical Points    =            302
    Total Points        =         453000
    Total Blocks        =           3386
    Max Points          =            256
    Max Functions       =            240


  -Total Gradient:
     Atom            X                  Y                   Z
    ------   -----------------  -----------------  -----------------
       1        0.011173734249     0.008316536546    -0.015505738411
       2        0.000454155638    -0.001470465569     0.001755347814
       3       -0.000058290557     0.000786674313    -0.000498884037
       4       -0.007588412574     0.006778244593    -0.006930794205
       5        0.001389181683    -0.001585173392     0.001099994731
       6        0.005598253862    -0.003223685415     0.004085622970
       7        0.002501078494    -0.005624833129     0.003191041421
       8       -0.002221340244    -0.002192931020    -0.001550152589
       9        0.032122407411     0.087480322578    -0.103017907637
      10       -0.001461050423     0.000875106202    -0.005020607801
      11       -0.040282803253    -0.104808028475     0.052623415014
      12       -0.030580645580    -0.053205742261    -0.120376746795
      13       -0.010961425708    -0.033417625929     0.054723988385
      14        0.052265731167     0.091279561267     0.050981963023
      15        0.000056938956    -0.005682984468     0.095652055814
      16       -0.004844918436     0.010659038594    -0.001419787505
      17       -0.007820604115    -0.007324599204    -0.001060913897
      18        0.000716513142     0.000369348421    -0.006059162421
      19        0.002855461758     0.012759104284     0.001635563765
      20       -0.003421070114    -0.000765323102    -0.004215353909


*** tstop() called on localhost.localdomain at Fri Mar  8 15:22:11 2019
Module time:
	user time   =     187.46 seconds =       3.12 minutes
	system time =       4.95 seconds =       0.08 minutes
	total time  =          8 seconds =       0.13 minutes
Total time:
	user time   =    2622.62 seconds =      43.71 minutes
	system time =      80.51 seconds =       1.34 minutes
	total time  =         95 seconds =       1.58 minutes

			-----------------------------------------
			 OPTKING 2.0: for geometry optimizations 
			  - R.A. King,  Bethel University        
			-----------------------------------------

	Previous internal coordinate definitions found.
	---Fragment 1 Geometry and Gradient---
	 C           0.7545160019        1.0967630499       -3.1938940830
	 O          -1.2342224002        1.0369226379       -4.6599210895
	 H           2.7339557099        7.1306973750       -5.4557096395
	 C           3.1013393729        5.1727884412       -4.9352480623
	 H           3.3690564150        4.0053562522       -6.6237516165
	 H           4.8187238432        5.0452682019       -3.7660268866
	 O           1.0337932651        4.2467505787       -3.4740153374
	 H          -0.6428532727        3.4945387611       -4.6160917624
	 C           0.3493199551        0.3746785788       -0.4869228936
	 H           2.5750414847        0.4379667599       -3.9657710609
	 C          -0.9029502056       -2.3281566233        0.7517753423
	 C          -1.6960981692       -4.3469161406        3.7662967925
	 C          -1.7899368376       -5.0096358984        7.0883891882
	 C          -0.5436634740       -2.2786695454        5.5535199577
	 C           0.3618674174       -0.0735156785        2.7117957790
	 H          -1.5685145956       -3.4733715912       -0.8883723458
	 H          -2.5916066886       -6.0238192359        2.8759492501
	 H          -2.7107625001       -6.8256231635        6.7510160012
	 H           0.1491732838       -1.1722747737        7.2012832432
	 H           1.4019494252        1.5487147766        3.5591138202
	             0.0111737342        0.0083165365       -0.0155057384
	             0.0004541556       -0.0014704656        0.0017553478
	            -0.0000582906        0.0007866743       -0.0004988840
[...]

  ==> Geometry <==

    Molecular point group: c1
    Full point group: C1

    Geometry (in Angstrom), charge = 0, multiplicity = 1:

       Center              X                  Y                   Z               Mass       
    ------------   -----------------  -----------------  -----------------  -----------------
         C            0.311073527441     0.521297568322    -1.581099750034    12.000000000000
         O           -0.649984727094     0.622149387134    -2.453513239080    15.994914619560
         H            1.753549689194     3.688938088587    -2.407011459705     1.007825032070
         C            1.830975069559     2.622486737361    -2.197996467999    12.000000000000
         H            2.000236914911     2.070149342338    -3.130136813408     1.007825032070
         H            2.658529069345     2.446725231249    -1.509382455168     1.007825032070
         O            0.619630329689     2.192361051686    -1.576509319862    15.994914619560
         H           -0.215587927958     1.929803635884    -2.284004352885     1.007825032070
         C           -0.025654500621     0.092194414090    -0.210487164766    12.000000000000
         H            1.285898746767     0.120746195145    -1.910032870129     1.007825032070
         C           -0.693715929064    -1.033611851161     0.132503741024    12.000000000000
         C           -0.909660234486    -2.233756049676     2.020427689922    12.000000000000
         C           -0.743058951523    -2.647728497632     3.523712497544    12.000000000000
         C           -0.244129002913    -1.298834070719     2.683124109048    12.000000000000
         C            0.133691626205     0.048607952686     1.149786451577    12.000000000000
         H           -1.223300055859    -1.600633739977    -0.699247195896     1.007825032070
         H           -1.456764397455    -3.032286839102     1.542231980316     1.007825032070
         H           -1.201252085175    -3.646002573095     3.473179135475     1.007825032070
         H            0.204114090858    -0.738644336729     3.504190403655     1.007825032070
         H            0.730340194401     0.878905318716     1.654245851596     1.007825032070

  Nuclear repulsion =  474.105660554478220

  ==> Basis Set <==

  Basis Set: 6-311++G(D,P)
    Blend: 6-311++G(D,P)
    Number of shells: 150
    Number of basis function: 290
    Number of Cartesian functions: 300
    Spherical Harmonics?: true
    Max angular momentum: 2

  ==> DFJKGrad: Density-Fitted SCF Gradients <==

    Gradient:                    1
    J tasked:                  Yes
    K tasked:                  Yes
    wK tasked:                  No
    OpenMP threads:             32
    Integrals threads:          32
    Memory (MB):               375
    Schwarz Cutoff:          0E+00
    Fitting Condition:       1E-12

   => Auxiliary Basis Set <=

  Basis Set: (6-311++G(D,P) AUX)
    Blend: AUG-CC-PVTZ-JKFIT
    Number of shells: 440
    Number of basis function: 1500
    Number of Cartesian functions: 1860
    Spherical Harmonics?: true
    Max angular momentum: 4

  ==> DFT Potential <==

   => Composite Functional: M06-2X <= 

    Hybrid M06-2X Meta-GGA XC Functional

    Y. Zhao and D. G. Truhlar,  Theor. Chem. Acc., 120, 215, 2008


    Deriv               =              1
    GGA                 =           TRUE
    Meta                =           TRUE

    Exchange Hybrid     =           TRUE
    MP2 Hybrid          =          FALSE

   => Exchange Functionals <=

    1.0000   XC_HYB_MGGA_X_M06_2X

   => Exact (HF) Exchange <=

    0.5400               HF 

   => Correlation Functionals <=

    1.0000   XC_MGGA_C_M06_2X

   => Molecular Quadrature <=

    Radial Scheme       =       TREUTLER
    Pruning Scheme      =           FLAT
    Nuclear Scheme      =       TREUTLER

    BS radius alpha     =              1
    Pruning alpha       =              1
    Radial Points       =             75
    Spherical Points    =            302
    Total Points        =         453000
    Total Blocks        =           3354
    Max Points          =            256
    Max Functions       =            242


  -Total Gradient:
     Atom            X                  Y                   Z
    ------   -----------------  -----------------  -----------------
       1        0.001369735586    -0.006605717949     0.009230294438
       2       -0.006717253440     0.003470566857    -0.006061843319
       3        0.000140044452     0.000234247127    -0.000029863636
       4       -0.000061843134     0.001651732113     0.000463234011
       5        0.000354561332    -0.000884744329    -0.001073821828
       6        0.001192514695    -0.000299041565     0.000196564066
       7        0.006299736589     0.000583385164     0.005155302195
       8       -0.008528091851    -0.007008215028    -0.005846542566
       9       -0.022892996494     0.025777996803     0.015692916586
      10       -0.000282219267    -0.001375742969    -0.000131725769
      11        0.030155778583     0.023756789331     0.049758234728
      12        0.012325109050     0.038643523636    -0.073351598776
      13        0.013213452857     0.000884140006     0.036936383077
      14       -0.038909802757    -0.006635158237     0.010778370296
      15       -0.049299618643    -0.020182235551    -0.032905664872
      16        0.019940160302    -0.013635979450    -0.010769690803
      17        0.007029308889    -0.017214181792     0.016311695934
      18       -0.015158250165     0.005275427067    -0.008010027400
      19        0.018866517111    -0.012505401833     0.000777303653
      20        0.030858444752    -0.013963807137    -0.007177353653


*** tstop() called on localhost.localdomain at Fri Mar  8 15:25:57 2019
Module time:
	user time   =     206.06 seconds =       3.43 minutes
	system time =       5.32 seconds =       0.09 minutes
	total time  =          8 seconds =       0.13 minutes
Total time:
	user time   =    8832.43 seconds =     147.21 minutes
	system time =     252.38 seconds =       4.21 minutes
	total time  =        321 seconds =       5.35 minutes

			-----------------------------------------
			 OPTKING 2.0: for geometry optimizations 
			  - R.A. King,  Bethel University        
			-----------------------------------------

	Previous internal coordinate definitions found.
	---Fragment 1 Geometry and Gradient---
	 C           0.5878437741        0.9851096379       -2.9878455163
	 O          -1.2282931248        1.1756919554       -4.6364680853
	 H           3.3137286730        6.9710827086       -4.5485924576
	 C           3.4600414376        4.9557817207       -4.1536113656
	 H           3.7798999701        3.9120153112       -5.9151013358
	 H           5.0238918574        4.6236406095       -2.8523194700
	 O           1.1709316267        4.1429619721       -2.9791708605
	 H          -0.4074021414        3.6468003621       -4.3161427133
	 C          -0.0484799803        0.1742221936       -0.3977630959
	 H           2.4299964660        0.2281772404       -3.6094390294
	 C          -1.3109331200       -1.9532433264        0.2503957821
	 C          -1.7190087172       -4.2211871816        3.8180550053
	 C          -1.4041779190       -5.0034817348        6.6588515914
	 C          -0.4613369566       -2.4544406857        5.0703697466
	 C           0.2526405598        0.0918557185        2.1727815048
	 H          -2.3117020839       -3.0247594076       -1.3213856994
	 H          -2.7528857513       -5.7301916823        2.9143960762
	 H          -2.2700374575       -6.8899463429        6.5633573765
	 H           0.3857197316       -1.3958355060        6.6219601804
	 H           1.3801429513        1.6608903491        3.1260716160
	             0.0013697356       -0.0066057179        0.0092302944
	            -0.0067172534        0.0034705669       -0.0060618433
	             0.0001400445        0.0002342471       -0.0000298636
	            -0.0000618431        0.0016517321        0.0004632340
	             0.0003545613       -0.0008847443       -0.0010738218
	             0.0011925147       -0.0002990416        0.0001965641
	             0.0062997366        0.0005833852        0.0051553022
	            -0.0085280919       -0.0070082150       -0.0058465426
	            -0.0228929965        0.0257779968        0.0156929166
	            -0.0002822193       -0.0013757430       -0.0001317258
	             0.0301557786        0.0237567893        0.0497582347
	             0.0123251090        0.0386435236       -0.0733515988
	             0.0132134529        0.0008841400        0.0369363831
	            -0.0389098028       -0.0066351582        0.0107783703
	            -0.0492996186       -0.0201822356       -0.0329056649
	             0.0199401603       -0.0136359794       -0.0107696908
	             0.0070293089       -0.0172141818        0.0163116959
	            -0.0151582502        0.0052754271       -0.0080100274
	             0.0188665171       -0.0125054018        0.0007773037
	             0.0308584448       -0.0139638071       -0.0071773537

	---Fragment 1 Intrafragment Coordinates---
	 - Coordinate -           - BOHR/RAD -       - ANG/DEG -
	 H(2,8)           =         2.623518	       1.388306
	 R(1,2)           =         2.460210	       1.301887
	 R(1,7)           =         3.211246	       1.699318
	 R(1,9)           =         2.787647	       1.475159
	 R(1,10)          =         2.086349	       1.104048
	 R(3,4)           =         2.058848	       1.089495
	 R(4,5)           =         2.072343	       1.096637
	 R(4,6)           =         2.061385	       1.090838
	 R(4,7)           =         2.698149	       1.427799
	 R(7,8)           =         2.127160	       1.125644
	 R(9,11)          =         2.557344	       1.353288
	 R(9,15)          =         2.589432	       1.370268
	 R(11,12)         =         4.247150	       2.247495
	 R(11,15)         =         3.212905	       1.700196
	 R(11,16)         =         2.149461	       1.137446
	 R(12,13)         =         2.963314	       1.568118
	 R(12,14)         =         2.504281	       1.325208
	 R(12,17)         =         2.040244	       1.079651
	 R(13,14)         =         3.147989	       1.665844
	 R(13,18)         =         2.077879	       1.099566
	 R(14,15)         =         3.922933	       2.075927
	 R(14,19)         =         2.060481	       1.090360
	 R(15,20)         =         2.154505	       1.140115
	 B(1,7,4)         =         2.036572	     116.686976
	 B(1,7,8)         =         1.196305	      68.543248
	 B(1,9,11)        =         2.202056	     126.168518
	 B(1,9,15)        =         2.702317	     154.831332
	 B(2,1,7)         =         1.630505	      93.421050
	 B(2,1,9)         =         2.067636	     118.466832
	 B(2,1,10)        =         2.071743	     118.702144
	 B(3,4,5)         =         1.918683	     109.932436
	 B(3,4,6)         =         1.910001	     109.434979
	 B(3,4,7)         =         1.894514	     108.547639
	 B(4,7,8)         =         2.011074	     115.226043
	 B(5,4,6)         =         1.915941	     109.775355
	 B(5,4,7)         =         1.927516	     110.438545
	 B(6,4,7)         =         1.896858	     108.681943
	 B(7,1,9)         =         1.901795	     108.964808
	 B(7,1,10)        =         1.769349	     101.376233
	 B(9,1,10)        =         1.952856	     111.890432
	 B(9,11,12)       =         2.352604	     134.794259
	 B(9,11,15)       =         0.904444	      51.820847
	 B(9,11,16)       =         2.047910	     117.336576
	 B(9,15,11)       =         0.888839	      50.926751
	 B(9,15,14)       =         2.393110	     137.115095
	 B(9,15,20)       =         2.067952	     118.484933
	 B(11,9,15)       =         1.348309	      77.252402
	 B(11,12,13)      =         2.782012	     159.397563
	 B(11,12,14)      =         1.565881	      89.718398
	 B(11,12,17)      =         1.642441	      94.104965
	 B(11,15,14)      =         1.510978	      86.572657
	 B(11,15,20)      =         2.956792	     169.411681
	 B(12,11,15)      =         1.454587	      83.341691
	 B(12,11,16)      =         1.878973	     107.657246
	 B(12,13,14)      =         0.842386	      48.265176
	 B(12,13,18)      =         1.722725	      98.704873
	 B(12,14,13)      =         1.082254	      62.008565
	 B(12,14,15)      =         1.751739	     100.367235
	 B(12,14,19)      =         2.809853	     160.992744
	 B(13,12,14)      =         1.216953	      69.726260
	 B(13,12,17)      =         1.857913	     106.450566
	 B(13,14,15)      =         2.833148	     162.327439
	 B(13,14,19)      =         1.730640	      99.158354
	 B(14,12,17)      =         3.074859	     176.176433
	 B(14,13,18)      =         2.562132	     146.799370
	 B(14,15,20)      =         1.814323	     103.953035
	 B(15,11,16)      =         2.948525	     168.938066
	 B(15,14,19)      =         1.719250	      98.505772
	 D(1,7,4,3)       =         2.830054	     162.150135
	 D(1,7,4,5)       =         0.725487	      41.567350
	 D(1,7,4,6)       =        -1.377188	     -78.907067
	 D(1,9,11,12)     =         2.811404	     161.081593
	 D(1,9,11,15)     =         2.962813	     169.756683
	 D(1,9,11,16)     =        -0.224427	     -12.858710
	 D(1,9,15,11)     =        -2.797271	    -160.271795
	 D(1,9,15,14)     =        -2.637913	    -151.141272
	 D(1,9,15,20)     =         0.344490	      19.737811
	 D(2,1,7,4)       =        -1.895424	    -108.599773
	 D(2,1,7,8)       =        -0.004214	      -0.241422
	 D(2,1,9,11)      =         0.952374	      54.567018
	 D(2,1,9,15)      =        -2.609299	    -149.501842
	 D(3,4,7,8)       =         1.476725	      84.610138
	 D(4,7,1,9)       =         2.263720	     129.701630
	 D(4,7,1,10)      =         0.202188	      11.584547
	 D(5,4,7,8)       =        -0.627841	     -35.972647
	 D(6,4,7,8)       =        -2.730516	    -156.447064
	 D(7,1,9,11)      =         2.784226	     159.524409
	 D(7,1,9,15)      =        -0.777447	     -44.544451
	 D(8,7,1,9)       =        -2.128255	    -121.940018
	 D(8,7,1,10)      =         2.093398	     119.942898
	 D(9,11,12,13)    =         0.052789	       3.024589
	 D(9,11,12,14)    =         0.118996	       6.817964
	 D(9,11,12,17)    =        -3.021907	    -173.142523
	 D(9,11,15,14)    =        -3.033198	    -173.789449
	 D(9,11,15,20)    =         0.000802	       0.045952
	 D(9,15,11,12)    =         3.033620	     173.813635
	 D(9,15,11,16)    =        -0.212869	     -12.196507
	 D(9,15,14,12)    =        -0.124452	      -7.130573
	 D(9,15,14,13)    =        -0.053794	      -3.082147
	 D(9,15,14,19)    =         3.056684	     175.135096
	 D(10,1,9,11)     =        -1.556833	     -89.199938
	 D(10,1,9,15)     =         1.164679	      66.731201
	 D(11,9,15,14)    =         0.159358	       9.130523
	 D(11,9,15,20)    =        -3.141425	    -179.990393
	 D(11,12,13,14)   =         0.070586	       4.044259
	 D(11,12,13,18)   =        -3.004567	    -172.149022
	 D(11,12,14,13)   =        -3.116773	    -178.577918
	 D(11,12,14,15)   =         0.000546	       0.031276
	 D(11,12,14,19)   =         3.021800	     173.136391
	 D(11,15,14,12)   =        -0.000723	      -0.041417
	 D(11,15,14,13)   =         0.069935	       4.007008
	 D(11,15,14,19)   =        -3.102772	    -177.775749
	 D(12,11,9,15)    =        -0.151409	      -8.675090
	 D(12,11,15,14)   =         0.000422	       0.024186
	 D(12,11,15,20)   =         3.034422	     173.859586
	 D(12,13,14,15)   =        -0.078729	      -4.510819
	 D(12,13,14,19)   =         3.094034	     177.275096
	 D(12,14,13,18)   =         0.120138	       6.883404
	 D(12,14,15,20)   =        -3.121982	    -178.876397
	 D(13,12,11,15)   =        -0.066867	      -3.831195
	 D(13,12,11,16)   =         3.095810	     177.376856
	 D(13,12,14,15)   =         3.117319	     178.609194
	 D(13,12,14,19)   =        -0.144613	      -8.285690
	 D(13,14,12,17)   =         0.014505	       0.831052
	 D(13,14,15,20)   =        -3.051324	    -174.827972
	 D(14,12,11,15)   =        -0.000660	      -0.037819
	 D(14,12,11,16)   =        -3.121168	    -178.829768
	 D(14,12,13,18)   =        -3.075153	    -176.193281
	 D(14,13,12,17)   =        -3.140584	    -179.942218
	 D(14,15,11,16)   =         3.037118	     174.014044
	 D(15,9,11,16)    =         3.095945	     177.384607
	 D(15,11,12,17)   =        -3.141563	    -179.998306
	 D(15,14,12,17)   =         3.131823	     179.440246
	 D(15,14,13,18)   =         0.041409	       2.372585
	 D(16,11,12,17)   =         0.021114	       1.209745
	 D(16,11,15,20)   =        -0.212067	     -12.150556
	 D(17,12,13,18)   =         0.067448	       3.864501
	 D(17,12,14,19)   =        -0.130108	      -7.454638
	 D(18,13,14,19)   =        -3.069013	    -175.841500
	 D(19,14,15,20)   =         0.059154	       3.389272

	Current energy   :      -460.5630163846

	Energy change for the previous step:
		Projected    :        -0.0194691361
		Actual       :        -0.0270685442

	Performing Bofill update.
	Previous computed or guess Hessian on step 1.
	Steps to be used in Hessian update: 6 5
	Taking PRFO optimization step.
	Maximizing along 1 lowest eigenvalue of Hessian.

 RFO min eigenvalues
 -0.068949 -0.000000 -0.000000 -0.000000 -0.000000 -0.000000 -0.000000 -0.000000
 -0.000000 -0.000000 -0.000000 -0.000000 -0.000000 -0.000000 -0.000000 -0.000000
 -0.000000 -0.000000 -0.000000 -0.000000 -0.000000 -0.000000 -0.000000 -0.000000
 -0.000000 -0.000000 -0.000000 -0.000000 -0.000000 -0.000000 -0.000000 -0.000000
 -0.000000 -0.000000 -0.000000 -0.000000 -0.000000 -0.000000 -0.000000 -0.000000
 -0.000000  0.000000  0.000000  0.000000  0.000000  0.000000  0.000000  0.000000
  0.000000  0.000000  0.000000  0.000000  0.000000  0.000000  0.000000  0.000000
  0.000000  0.000000  0.000000  0.000000  0.000000  0.000000  0.000000  0.000000
  0.000000  0.000000  0.000000  0.000000  0.000000  0.000000  0.000000  0.000000
  0.000000  0.000000  0.000000  0.000000  0.000000  0.000000  0.000000  0.000000
  0.000000  0.000000  0.000000  0.000000  0.000000  0.000000  0.000000  0.000992
  0.001181  0.001989  0.002286  0.002292  0.002301  0.002312  0.002381  0.002472
  0.002800  0.008092  0.033230  0.049034  0.052651  0.064128  0.070647  0.074636
  0.079210  0.108603  0.112231  0.121355  0.129320  0.133410  0.137916  0.150785
  0.153842  0.154356  0.159361  0.159972  0.160006  0.160030  0.161164  0.165962
  0.174305  0.180020  0.190335  0.216173  0.221824  0.233026  0.266160  0.286066
  0.306361  0.311342  0.312197  0.318803  0.322443  0.323798  0.333352  0.341553
  0.346533  0.347006  0.412122  0.649861

 RFO max eigenvalues
 -0.050802  0.000213
	Change in coordinate exceeds step limit of    0.50000.
	Scaling displacements by    0.44104
	|RFO target step|  :        0.5000000000
	RFO gradient       :       -0.0606315480
	RFO hessian        :       -0.0152415018
	Projected Delta(E) :       -0.0257767694

	Back-transformation to cartesian coordinates...
	The INTCO_EXCEPTion handler:
	TORS::compute_val: unable to compute torsion value
	Dynamic level is 0.
	exc.g_really_quit() is 0.

  **** Optimization has failed! (in 7 steps) ****
			--------------------------
			 OPTKING Finished Execution 
			--------------------------
	Removing binary optimization data file.
	Cleaning optimization helper files.

PsiException: Could not converge geometry optimization in 6 iterations.


Traceback (most recent call last):
  File "/root/psi4conda/bin/psi4", line 269, in <module>
    exec(content)
  File "<string>", line 48, in <module>
  File "/root/psi4conda/lib//python3.6/site-packages/psi4/driver/driver.py", line 1220, in optimize
    raise OptimizationConvergenceError("""geometry optimization""", n - 1, wfn)

OptimizationConvergenceError: Could not converge geometry optimization in 6 iterations.

    Psi4 stopped on: Friday, 08 March 2019 03:25PM
    Psi4 wall time for execution: 0:05:21.56

*** Psi4 encountered an error. Buy a developer more coffee!
*** Resources and help at github.com/psi4/psi4.
