
    -----------------------------------------------------------------------
          Psi4: An Open-Source Ab Initio Electronic Structure Package
                               Psi4 1.2.1 release

                         Git: Rev {HEAD} 406f4de 


    R. M. Parrish, L. A. Burns, D. G. A. Smith, A. C. Simmonett,
    A. E. DePrince III, E. G. Hohenstein, U. Bozkaya, A. Yu. Sokolov,
    R. Di Remigio, R. M. Richard, J. F. Gonthier, A. M. James,
    H. R. McAlexander, A. Kumar, M. Saitow, X. Wang, B. P. Pritchard,
    P. Verma, H. F. Schaefer III, K. Patkowski, R. A. King, E. F. Valeev,
    F. A. Evangelista, J. M. Turney, T. D. Crawford, and C. D. Sherrill,
    J. Chem. Theory Comput. 13(7) pp 3185--3197 (2017).
    (doi: 10.1021/acs.jctc.7b00174)


                         Additional Contributions by
    P. Kraus, H. Kruse, M. H. Lechner, M. C. Schieber, and R. A. Shaw

    -----------------------------------------------------------------------


    Psi4 started on: Monday, 13 May 2019 11:08AM

    Process ID: 20686
    Host:       localhost.localdomain
    PSIDATADIR: /root/psi4conda/share/psi4
    Memory:     500.0 MiB
    Threads:    1
    
  ==> Input File <==

--------------------------------------------------------------------------
molecule{
0 1
C       -0.6101067389     -1.0420929117     -0.5574034208                 
O       -1.7819647030     -0.9615987922     -0.7542289137                 
F        1.3341825623     -0.2209294838      0.5363095501                 
F       -0.5431620537      0.7377519586      1.0301125198                 
C        0.0230537792     -0.4171594251      0.7001078690                 
F       -0.1292876837     -1.2633457816      1.7287523978                 
H        0.0957677128     -1.6019739962     -1.1901173596      
}

set{
   basis 6-311++G(d,p)
   freeze_core True
   cubeprop_tasks ['ESP']
}


set_num_threads(32)
e, wfn = energy('m06-2x', return_wfn=True)
cubeprop(wfn)
--------------------------------------------------------------------------
  Threads set to 32 by Python driver.

*** tstart() called on localhost.localdomain
*** at Mon May 13 11:08:03 2019

   => Loading Basis Set <=

    Name: 6-311++G(D,P)
    Role: ORBITAL
    Keyword: BASIS
    atoms 1, 5   entry C          line   119 file /root/psi4conda/share/psi4/basis/6-311ppg_d_p_.gbs 
    atoms 2      entry O          line   161 file /root/psi4conda/share/psi4/basis/6-311ppg_d_p_.gbs 
    atoms 3-4, 6 entry F          line   182 file /root/psi4conda/share/psi4/basis/6-311ppg_d_p_.gbs 
    atoms 7      entry H          line    42 file /root/psi4conda/share/psi4/basis/6-311ppg_d_p_.gbs 


         ---------------------------------------------------------
                                   SCF
            by Justin Turney, Rob Parrish, Andy Simmonett
                             and Daniel Smith
                              RKS Reference
                       32 Threads,    500 MiB Core
         ---------------------------------------------------------

  ==> Geometry <==

    Molecular point group: c1
    Full point group: C1

    Geometry (in Angstrom), charge = 0, multiplicity = 1:

       Center              X                  Y                   Z               Mass       
    ------------   -----------------  -----------------  -----------------  -----------------
         C           -0.376646499970    -0.545256199810    -1.078355642935    12.000000000000
         O           -1.548504464070    -0.464762080310    -1.275181135835    15.994914619560
         F            1.567642801230     0.275907228090     0.015357327965    18.998403224000
         F           -0.309701814770     1.234588670490     0.509160297665    18.998403224000
         C            0.256514018130     0.079677286790     0.179155646865    12.000000000000
         F            0.104172555230    -0.766509069710     1.207800175665    18.998403224000
         H            0.329227951730    -1.105137284310    -1.711069581735     1.007825032070

  Running in c1 symmetry.

  Rotational constants: A =      0.18496  B =      0.10011  C =      0.09830 [cm^-1]
  Rotational constants: A =   5545.07653  B =   3001.20738  C =   2946.98846 [MHz]
  Nuclear repulsion =  253.177881957583594

  Charge       = 0
  Multiplicity = 1
  Electrons    = 48
  Nalpha       = 24
  Nbeta        = 24

  ==> Algorithm <==

  SCF Algorithm Type is DF.
  DIIS enabled.
  MOM disabled.
  Fractional occupation disabled.
  Guess Type is SAD.
  Energy threshold   = 1.00e-06
  Density threshold  = 1.00e-06
  Integral threshold = 0.00e+00

  ==> Primary Basis <==

  Basis Set: 6-311++G(D,P)
    Blend: 6-311++G(D,P)
    Number of shells: 65
    Number of basis function: 139
    Number of Cartesian functions: 145
    Spherical Harmonics?: true
    Max angular momentum: 2

  ==> DFT Potential <==

   => Composite Functional: M06-2X <= 

    Hybrid M06-2X Meta-GGA XC Functional

    Y. Zhao and D. G. Truhlar,  Theor. Chem. Acc., 120, 215, 2008


    Deriv               =              1
    GGA                 =           TRUE
    Meta                =           TRUE

    Exchange Hybrid     =           TRUE
    MP2 Hybrid          =          FALSE

   => Exchange Functionals <=

    1.0000   XC_HYB_MGGA_X_M06_2X

   => Exact (HF) Exchange <=

    0.5400               HF 

   => Correlation Functionals <=

    1.0000   XC_MGGA_C_M06_2X

   => Molecular Quadrature <=

    Radial Scheme       =       TREUTLER
    Pruning Scheme      =           FLAT
    Nuclear Scheme      =       TREUTLER

    BS radius alpha     =              1
    Pruning alpha       =              1
    Radial Points       =             75
    Spherical Points    =            302
    Total Points        =         158550
    Total Blocks        =           1259
    Max Points          =            256
    Max Functions       =            134

   => Loading Basis Set <=

    Name: (6-311++G(D,P) AUX)
    Role: JKFIT
    Keyword: DF_BASIS_SCF
    atoms 1, 5   entry C          line   162 file /root/psi4conda/share/psi4/basis/aug-cc-pvtz-jkfit.gbs 
    atoms 2      entry O          line   286 file /root/psi4conda/share/psi4/basis/aug-cc-pvtz-jkfit.gbs 
    atoms 3-4, 6 entry F          line   348 file /root/psi4conda/share/psi4/basis/aug-cc-pvtz-jkfit.gbs 
    atoms 7      entry H          line    70 file /root/psi4conda/share/psi4/basis/aug-cc-pvtz-jkfit.gbs 

  ==> Pre-Iterations <==

   -------------------------------------------------------
    Irrep   Nso     Nmo     Nalpha   Nbeta   Ndocc  Nsocc
   -------------------------------------------------------
     A        139     139       0       0       0       0
   -------------------------------------------------------
    Total     139     139      24      24      24       0
   -------------------------------------------------------

  ==> Integral Setup <==

  DFHelper Memory: AOs need 0.127 [GiB]; user supplied 0.366 [GiB]. Using in-core AOs.

  ==> MemDFJK: Density-Fitted J/K Matrices <==

    J tasked:                   Yes
    K tasked:                   Yes
    wK tasked:                   No
    OpenMP threads:              32
    Memory (MB):                375
    Algorithm:                 Core
    Schwarz Cutoff:           1E-12
    Mask sparsity (%):       3.0744
    Fitting Condition:        1E-12

   => Auxiliary Basis Set <=

  Basis Set: (6-311++G(D,P) AUX)
    Blend: AUG-CC-PVTZ-JKFIT
    Number of shells: 194
    Number of basis function: 670
    Number of Cartesian functions: 841
    Spherical Harmonics?: true
    Max angular momentum: 4

  Minimum eigenvalue in the overlap matrix is 1.8109227217E-04.
  Using Symmetric Orthogonalization.

  SCF Guess: Superposition of Atomic Densities via on-the-fly atomic UHF.

  ==> Iterations <==

                           Total Energy        Delta E     RMS |[F,P]|

   @DF-RKS iter   0:  -452.69394910464746   -4.52694e+02   1.03267e-01 
   @DF-RKS iter   1:  -451.29178844556714    1.40216e+00   2.34537e-02 
   @DF-RKS iter   2:  -451.05355860335101    2.38230e-01   2.59752e-02 DIIS
   @DF-RKS iter   3:  -451.52580230629258   -4.72244e-01   4.14646e-03 DIIS
   @DF-RKS iter   4:  -451.53087481551199   -5.07251e-03   1.76349e-03 DIIS
   @DF-RKS iter   5:  -451.53286763792715   -1.99282e-03   2.99662e-04 DIIS
   @DF-RKS iter   6:  -451.53297800113620   -1.10363e-04   1.66643e-04 DIIS
   @DF-RKS iter   7:  -451.53300847357360   -3.04724e-05   6.50814e-05 DIIS
   @DF-RKS iter   8:  -451.53301484492494   -6.37135e-06   2.51606e-05 DIIS
   @DF-RKS iter   9:  -451.53301601194232   -1.16702e-06   1.20246e-05 DIIS
   @DF-RKS iter  10:  -451.53301640066002   -3.88718e-07   2.42565e-06 DIIS
   @DF-RKS iter  11:  -451.53301641790239   -1.72424e-08   9.16989e-07 DIIS

  ==> Post-Iterations <==

    Orbital Energies [Eh]
    ---------------------

    Doubly Occupied:                                                      

       1A    -25.306632     2A    -25.302912     3A    -25.302287  
       4A    -19.690370     5A    -10.826016     6A    -10.688986  
       7A     -1.499102     8A     -1.406241     9A     -1.402334  
      10A     -1.243061    11A     -0.883588    12A     -0.779230  
      13A     -0.725026    14A     -0.721375    15A     -0.675659  
      16A     -0.606142    17A     -0.601412    18A     -0.587958  
      19A     -0.562611    20A     -0.556427    21A     -0.540895  
      22A     -0.538611    23A     -0.514208    24A     -0.390124  

    Virtual:                                                              

      25A     -0.050239    26A     -0.001097    27A      0.036157  
      28A      0.038862    29A      0.050920    30A      0.072584  
      31A      0.077834    32A      0.080551    33A      0.110725  
      34A      0.133272    35A      0.160698    36A      0.179834  
      37A      0.195052    38A      0.219959    39A      0.234468  
      40A      0.249051    41A      0.263222    42A      0.269032  
      43A      0.279272    44A      0.282268    45A      0.302134  
      46A      0.313260    47A      0.316359    48A      0.338256  
      49A      0.349030    50A      0.358168    51A      0.366351  
      52A      0.372638    53A      0.400258    54A      0.428886  
      55A      0.440295    56A      0.481365    57A      0.551103  
      58A      0.568794    59A      0.618549    60A      0.654225  
      61A      0.676149    62A      0.698748    63A      0.719756  
      64A      0.862997    65A      0.993337    66A      1.068626  
      67A      1.110256    68A      1.132567    69A      1.188244  
      70A      1.241788    71A      1.256635    72A      1.342345  
      73A      1.362485    74A      1.409363    75A      1.415716  
      76A      1.436459    77A      1.447945    78A      1.457406  
      79A      1.501826    80A      1.509529    81A      1.531708  
      82A      1.591490    83A      1.611381    84A      1.662478  
      85A      1.729950    86A      1.796904    87A      1.850875  
      88A      1.897096    89A      1.944769    90A      1.956132  
      91A      1.994216    92A      2.121373    93A      2.312738  
      94A      2.439503    95A      2.579746    96A      2.694930  
      97A      2.849264    98A      2.891041    99A      2.959619  
     100A      2.981827   101A      3.024105   102A      3.369885  
     103A      3.456578   104A      3.542723   105A      3.628962  
     106A      3.777438   107A      3.815885   108A      3.818186  
     109A      3.828204   110A      3.837517   111A      3.844121  
     112A      3.853690   113A      3.955601   114A      3.994333  
     115A      4.021665   116A      4.196888   117A      4.265707  
     118A      4.278641   119A      4.651264   120A      4.960442  
     121A      4.969493   122A      5.067820   123A      5.200371  
     124A      5.736341   125A      6.386259   126A      6.403210  
     127A      6.447933   128A      6.457828   129A      6.470259  
     130A      6.485037   131A      6.556080   132A      6.861616  
     133A      6.872433   134A     23.559455   135A     23.902120  
     136A     50.014622   137A     66.852288   138A     66.860000  
     139A     66.914421  

    Final Occupation by Irrep:
              A 
    DOCC [    24 ]

  Energy converged.

  @DF-RKS Final Energy:  -451.53301641790239

   => Energetics <=

    Nuclear Repulsion Energy =            253.1778819575835939
    One-Electron Energy =               -1126.4259036245514380
    Two-Electron Energy =                 446.2541173050904604
    DFT Exchange-Correlation Energy =     -24.5391120560250471
    Empirical Dispersion Energy =           0.0000000000000000
    VV10 Nonlocal Energy =                  0.0000000000000000
    Total Energy =                       -451.5330164179023882



Properties will be evaluated at   0.000000,   0.000000,   0.000000 [a0]

Properties computed using the SCF density matrix

  Nuclear Dipole Moment: [e a0]
     X:    -0.9838      Y:    -1.7401      Z:    -3.2444

  Electronic Dipole Moment: [e a0]
     X:     1.5341      Y:     1.4065      Z:     2.7655

  Dipole Moment: [e a0]
     X:     0.5504      Y:    -0.3336      Z:    -0.4789     Total:     0.8022

  Dipole Moment: [D]
     X:     1.3990      Y:    -0.8479      Z:    -1.2172     Total:     2.0391


*** tstop() called on localhost.localdomain at Mon May 13 11:08:07 2019
Module time:
	user time   =      95.98 seconds =       1.60 minutes
	system time =       5.15 seconds =       0.09 minutes
	total time  =          4 seconds =       0.07 minutes
Total time:
	user time   =      95.98 seconds =       1.60 minutes
	system time =       5.15 seconds =       0.09 minutes
	total time  =          4 seconds =       0.07 minutes
  ==> One Electron Grid Properties (v2.0) <==

  ==> CubicScalarGrid <==

    Filepath     = .
    Total Points =           313536
    XYZ Blocking =               10
    X Points     =               71
    Y Points     =               64
    Z Points     =               69
    X Spacing    =        2.000E-01
    Y Spacing    =        2.000E-01
    Z Spacing    =        2.000E-01
    X Minimum    =       -6.982E+00
    Y Minimum    =       -6.178E+00
    Z Minimum    =       -7.276E+00
    X Maximum    =        7.018E+00
    Y Maximum    =        6.422E+00
    Z Maximum    =        6.324E+00

  Basis Set: 6-311++G(D,P)
    Blend: 6-311++G(D,P)
    Number of shells: 65
    Number of basis function: 139
    Number of Cartesian functions: 145
    Spherical Harmonics?: true
    Max angular momentum: 2


    Psi4 stopped on: Monday, 13 May 2019 11:08AM
    Psi4 wall time for execution: 0:00:07.12

*** Psi4 exiting successfully. Buy a developer a beer!
