
    -----------------------------------------------------------------------
          Psi4: An Open-Source Ab Initio Electronic Structure Package
                               Psi4 1.2.1 release

                         Git: Rev {HEAD} 406f4de 


    R. M. Parrish, L. A. Burns, D. G. A. Smith, A. C. Simmonett,
    A. E. DePrince III, E. G. Hohenstein, U. Bozkaya, A. Yu. Sokolov,
    R. Di Remigio, R. M. Richard, J. F. Gonthier, A. M. James,
    H. R. McAlexander, A. Kumar, M. Saitow, X. Wang, B. P. Pritchard,
    P. Verma, H. F. Schaefer III, K. Patkowski, R. A. King, E. F. Valeev,
    F. A. Evangelista, J. M. Turney, T. D. Crawford, and C. D. Sherrill,
    J. Chem. Theory Comput. 13(7) pp 3185--3197 (2017).
    (doi: 10.1021/acs.jctc.7b00174)


                         Additional Contributions by
    P. Kraus, H. Kruse, M. H. Lechner, M. C. Schieber, and R. A. Shaw

    -----------------------------------------------------------------------


    Psi4 started on: Thursday, 17 January 2019 12:24PM

    Process ID: 10616
    Host:       localhost.localdomain
    PSIDATADIR: /root/psi4conda/share/psi4
    Memory:     500.0 MiB
    Threads:    1
    
  ==> Input File <==

--------------------------------------------------------------------------
molecule{
0 1
C     -0.108048   -0.645236    0.050654
O     -1.120282   -0.619961   -0.731157
O      0.225504    0.911684   -0.083940
H     -0.718435    0.657922   -0.701050
H      1.355440    2.315564   -1.044552
C      1.408542    1.254452   -0.810960
H      1.473575    0.670673   -1.733349
H      2.273373    1.062369   -0.177825
Cl    -0.343774   -0.817235    1.371281
H      0.812505   -1.184592   -0.204078 
}

set{
   basis 6-311++G(d,p)
   freeze_core True
   opt_type ts
}


set_num_threads(16)
optimize('m06-2x')
--------------------------------------------------------------------------
  Threads set to 16 by Python driver.
gradient() will perform analytic gradient computation.

*** tstart() called on localhost.localdomain
*** at Thu Jan 17 12:24:37 2019

   => Loading Basis Set <=

    Name: 6-311++G(D,P)
    Role: ORBITAL
    Keyword: BASIS
    atoms 1, 6         entry C          line   119 file /root/psi4conda/share/psi4/basis/6-311ppg_d_p_.gbs 
    atoms 2-3          entry O          line   161 file /root/psi4conda/share/psi4/basis/6-311ppg_d_p_.gbs 
    atoms 4-5, 7-8, 10 entry H          line    42 file /root/psi4conda/share/psi4/basis/6-311ppg_d_p_.gbs 
    atoms 9            entry CL         line   458 file /root/psi4conda/share/psi4/basis/6-311ppg_d_p_.gbs 


         ---------------------------------------------------------
                                   SCF
            by Justin Turney, Rob Parrish, Andy Simmonett
                             and Daniel Smith
                              RKS Reference
                       16 Threads,    500 MiB Core
         ---------------------------------------------------------

  ==> Geometry <==

    Molecular point group: c1
    Full point group: C1

    Geometry (in Angstrom), charge = 0, multiplicity = 1:

       Center              X                  Y                   Z               Mass       
    ------------   -----------------  -----------------  -----------------  -----------------
         C           -0.050856780828    -0.509278742447    -0.177475992886    12.000000000000
         O           -1.063090780828    -0.484003742447    -0.959286992886    15.994914619560
         O            0.282695219172     1.047641257553    -0.312069992886    15.994914619560
         H           -0.661243780828     0.793879257553    -0.929179992886     1.007825032070
         H            1.412631219172     2.451521257553    -1.272681992886     1.007825032070
         C            1.465733219172     1.390409257553    -1.039089992886    12.000000000000
         H            1.530766219172     0.806630257553    -1.961478992886     1.007825032070
         H            2.330564219172     1.198326257553    -0.405954992886     1.007825032070
         CL          -0.286582780828    -0.681277742447     1.143151007114    34.968852682000
         H            0.869696219172    -1.048634742447    -0.432207992886     1.007825032070

  Running in c1 symmetry.

  Rotational constants: A =      0.26894  B =      0.10362  C =      0.08248 [cm^-1]
  Rotational constants: A =   8062.71540  B =   3106.44313  C =   2472.64364 [MHz]
  Nuclear repulsion =  260.224276577883757

  Charge       = 0
  Multiplicity = 1
  Electrons    = 50
  Nalpha       = 25
  Nbeta        = 25

  ==> Algorithm <==

  SCF Algorithm Type is DF.
  DIIS enabled.
  MOM disabled.
  Fractional occupation disabled.
  Guess Type is SAD.
  Energy threshold   = 1.00e-08
  Density threshold  = 1.00e-08
  Integral threshold = 0.00e+00

  ==> Primary Basis <==

  Basis Set: 6-311++G(D,P)
    Blend: 6-311++G(D,P)
    Number of shells: 79
    Number of basis function: 153
    Number of Cartesian functions: 158
    Spherical Harmonics?: true
    Max angular momentum: 2

  ==> DFT Potential <==

   => Composite Functional: M06-2X <= 

    Hybrid M06-2X Meta-GGA XC Functional

    Y. Zhao and D. G. Truhlar,  Theor. Chem. Acc., 120, 215, 2008


    Deriv               =              1
    GGA                 =           TRUE
    Meta                =           TRUE

    Exchange Hybrid     =           TRUE
    MP2 Hybrid          =          FALSE

   => Exchange Functionals <=

    1.0000   XC_HYB_MGGA_X_M06_2X

   => Exact (HF) Exchange <=

    0.5400               HF 

   => Correlation Functionals <=

    1.0000   XC_MGGA_C_M06_2X

   => Molecular Quadrature <=

    Radial Scheme       =       TREUTLER
    Pruning Scheme      =           FLAT
    Nuclear Scheme      =       TREUTLER

    BS radius alpha     =              1
    Pruning alpha       =              1
    Radial Points       =             75
    Spherical Points    =            302
    Total Points        =         226370
    Total Blocks        =           1756
    Max Points          =            256
    Max Functions       =            150

   => Loading Basis Set <=

    Name: (6-311++G(D,P) AUX)
    Role: JKFIT
    Keyword: DF_BASIS_SCF
    atoms 1, 6         entry C          line   162 file /root/psi4conda/share/psi4/basis/aug-cc-pvtz-jkfit.gbs 
    atoms 2-3          entry O          line   286 file /root/psi4conda/share/psi4/basis/aug-cc-pvtz-jkfit.gbs 
    atoms 4-5, 7-8, 10 entry H          line    70 file /root/psi4conda/share/psi4/basis/aug-cc-pvtz-jkfit.gbs 
    atoms 9            entry CL         line   816 file /root/psi4conda/share/psi4/basis/aug-cc-pvtz-jkfit.gbs 

  ==> Pre-Iterations <==

   -------------------------------------------------------
    Irrep   Nso     Nmo     Nalpha   Nbeta   Ndocc  Nsocc
   -------------------------------------------------------
     A        153     153       0       0       0       0
   -------------------------------------------------------
    Total     153     153      25      25      25       0
   -------------------------------------------------------

  ==> Integral Setup <==

  DFHelper Memory: AOs need 0.178 [GiB]; user supplied 0.366 [GiB]. Using in-core AOs.

  ==> MemDFJK: Density-Fitted J/K Matrices <==

    J tasked:                   Yes
    K tasked:                   Yes
    wK tasked:                   No
    OpenMP threads:              16
    Memory (MB):                375
    Algorithm:                 Core
    Schwarz Cutoff:           1E-12
    Mask sparsity (%):       2.6144
    Fitting Condition:        1E-12

   => Auxiliary Basis Set <=

  Basis Set: (6-311++G(D,P) AUX)
    Blend: AUG-CC-PVTZ-JKFIT
    Number of shells: 232
    Number of basis function: 792
    Number of Cartesian functions: 979
    Spherical Harmonics?: true
    Max angular momentum: 4

  Minimum eigenvalue in the overlap matrix is 9.3102844532E-05.
  Using Symmetric Orthogonalization.

  SCF Guess: Superposition of Atomic Densities via on-the-fly atomic UHF.

  ==> Iterations <==

                           Total Energy        Delta E     RMS |[F,P]|

   @DF-RKS iter   0:  -691.40038876471249   -6.91400e+02   6.69803e-02 
   @DF-RKS iter   1:  -689.46893338305813    1.93146e+00   8.55769e-03 
   @DF-RKS iter   2:  -689.39267844019037    7.62549e-02   1.91378e-02 DIIS
   @DF-RKS iter   3:  -689.59384625591190   -2.01168e-01   1.50177e-03 DIIS
   @DF-RKS iter   4:  -689.59768569814867   -3.83944e-03   7.94487e-04 DIIS
   @DF-RKS iter   5:  -689.59811193404050   -4.26236e-04   3.49042e-04 DIIS
   @DF-RKS iter   6:  -689.59820883924920   -9.69052e-05   7.17124e-05 DIIS
   @DF-RKS iter   7:  -689.59821312032955   -4.28108e-06   1.20651e-05 DIIS
   @DF-RKS iter   8:  -689.59821344744375   -3.27114e-07   7.84125e-06 DIIS
   @DF-RKS iter   9:  -689.59821351446158   -6.70178e-08   7.52536e-07 DIIS
   @DF-RKS iter  10:  -689.59821351774997   -3.28839e-09   2.18379e-07 DIIS
   @DF-RKS iter  11:  -689.59821351802702   -2.77055e-10   8.04824e-08 DIIS
   @DF-RKS iter  12:  -689.59821351805499   -2.79670e-11   4.35173e-08 DIIS
   @DF-RKS iter  13:  -689.59821351805670   -1.70530e-12   1.02900e-08 DIIS
   @DF-RKS iter  14:  -689.59821351805738   -6.82121e-13   4.62276e-09 DIIS

  ==> Post-Iterations <==

    Orbital Energies [Eh]
    ---------------------

    Doubly Occupied:                                                      

       1A   -102.672892     2A    -19.682448     3A    -19.573639  
       4A    -10.676464     5A    -10.614013     6A     -9.834902  
       7A     -7.560223     8A     -7.551969     9A     -7.551001  
      10A     -1.263829    11A     -1.143423    12A     -1.062360  
      13A     -0.826785    14A     -0.718917    15A     -0.652534  
      16A     -0.620555    17A     -0.595593    18A     -0.551356  
      19A     -0.528358    20A     -0.488076    21A     -0.464197  
      22A     -0.390662    23A     -0.373263    24A     -0.345738  
      25A     -0.334455  

    Virtual:                                                              

      26A     -0.008550    27A      0.011475    28A      0.023298  
      29A      0.025448    30A      0.045819    31A      0.051342  
      32A      0.062837    33A      0.068219    34A      0.075969  
      35A      0.089216    36A      0.101722    37A      0.114611  
      38A      0.117404    39A      0.126006    40A      0.132250  
      41A      0.138319    42A      0.141875    43A      0.182899  
      44A      0.193712    45A      0.202596    46A      0.214487  
      47A      0.225864    48A      0.237754    49A      0.250673  
      50A      0.261152    51A      0.275470    52A      0.300385  
      53A      0.309161    54A      0.318410    55A      0.322940  
      56A      0.332711    57A      0.337635    58A      0.393636  
      59A      0.409488    60A      0.444407    61A      0.480237  
      62A      0.484003    63A      0.504139    64A      0.520513  
      65A      0.569491    66A      0.586471    67A      0.606897  
      68A      0.629034    69A      0.654897    70A      0.670741  
      71A      0.698222    72A      0.712817    73A      0.727366  
      74A      0.840365    75A      0.875225    76A      0.918688  
      77A      0.926238    78A      0.996115    79A      1.014859  
      80A      1.055126    81A      1.084537    82A      1.090369  
      83A      1.181930    84A      1.194012    85A      1.221621  
      86A      1.237499    87A      1.298437    88A      1.342980  
      89A      1.362700    90A      1.429538    91A      1.464760  
      92A      1.498652    93A      1.510731    94A      1.561786  
      95A      1.593247    96A      1.603846    97A      1.663810  
      98A      1.693884    99A      1.698758   100A      1.730209  
     101A      1.761519   102A      1.830821   103A      1.856885  
     104A      1.970217   105A      2.048717   106A      2.078783  
     107A      2.102610   108A      2.155865   109A      2.217178  
     110A      2.306232   111A      2.330287   112A      2.393140  
     113A      2.437617   114A      2.462379   115A      2.489397  
     116A      2.523571   117A      2.535029   118A      2.582047  
     119A      2.606804   120A      2.717227   121A      2.747537  
     122A      2.817250   123A      2.922018   124A      2.927054  
     125A      2.995952   126A      3.139210   127A      3.157947  
     128A      3.254180   129A      3.352993   130A      3.506773  
     131A      3.573447   132A      3.736935   133A      3.755996  
     134A      3.825399   135A      3.849477   136A      3.981173  
     137A      4.058196   138A      4.156466   139A      5.231501  
     140A      5.255091   141A      5.282582   142A      5.327309  
     143A      5.638115   144A      5.814437   145A     10.218965  
     146A     23.907634   147A     23.966161   148A     26.050593  
     149A     26.096864   150A     27.120594   151A     49.987281  
     152A     50.146472   153A    216.394076  

    Final Occupation by Irrep:
              A 
    DOCC [    25 ]

  Energy converged.

  @DF-RKS Final Energy:  -689.59821351805738

   => Energetics <=

    Nuclear Repulsion Energy =            260.2242765778837565
    One-Electron Energy =               -1464.7234393745154648
    Two-Electron Energy =                 542.7705766964696750
    DFT Exchange-Correlation Energy =     -27.8696274178952912
    Empirical Dispersion Energy =           0.0000000000000000
    VV10 Nonlocal Energy =                  0.0000000000000000
    Total Energy =                       -689.5982135180573778



Properties will be evaluated at   0.000000,   0.000000,   0.000000 [a0]

Properties computed using the SCF density matrix

  Nuclear Dipole Moment: [e a0]
     X:     5.3982      Y:     4.5654      Z:    -5.7413

  Electronic Dipole Moment: [e a0]
     X:    -3.9783      Y:    -3.9306      Z:     5.7912

  Dipole Moment: [e a0]
     X:     1.4199      Y:     0.6348      Z:     0.0498     Total:     1.5561

  Dipole Moment: [D]
     X:     3.6089      Y:     1.6134      Z:     0.1266     Total:     3.9552


*** tstop() called on localhost.localdomain at Thu Jan 17 12:24:54 2019
Module time:
	user time   =     212.04 seconds =       3.53 minutes
	system time =       8.56 seconds =       0.14 minutes
	total time  =         17 seconds =       0.28 minutes
Total time:
	user time   =     212.04 seconds =       3.53 minutes
	system time =       8.56 seconds =       0.14 minutes
	total time  =         17 seconds =       0.28 minutes

*** tstart() called on localhost.localdomain
*** at Thu Jan 17 12:24:54 2019


         ------------------------------------------------------------
                                   SCF GRAD                          
                          Rob Parrish, Justin Turney,                
                       Andy Simmonett, and Alex Sokolov              
         ------------------------------------------------------------

  ==> Geometry <==

    Molecular point group: c1
    Full point group: C1

    Geometry (in Angstrom), charge = 0, multiplicity = 1:

       Center              X                  Y                   Z               Mass       
    ------------   -----------------  -----------------  -----------------  -----------------
         C           -0.050856780828    -0.509278742447    -0.177475992886    12.000000000000
         O           -1.063090780828    -0.484003742447    -0.959286992886    15.994914619560
         O            0.282695219172     1.047641257553    -0.312069992886    15.994914619560
         H           -0.661243780828     0.793879257553    -0.929179992886     1.007825032070
         H            1.412631219172     2.451521257553    -1.272681992886     1.007825032070
         C            1.465733219172     1.390409257553    -1.039089992886    12.000000000000
         H            1.530766219172     0.806630257553    -1.961478992886     1.007825032070
         H            2.330564219172     1.198326257553    -0.405954992886     1.007825032070
         CL          -0.286582780828    -0.681277742447     1.143151007114    34.968852682000
         H            0.869696219172    -1.048634742447    -0.432207992886     1.007825032070

  Nuclear repulsion =  260.224276577883757

  ==> Basis Set <==

  Basis Set: 6-311++G(D,P)
    Blend: 6-311++G(D,P)
    Number of shells: 79
    Number of basis function: 153
    Number of Cartesian functions: 158
    Spherical Harmonics?: true
    Max angular momentum: 2

  ==> DFJKGrad: Density-Fitted SCF Gradients <==

    Gradient:                    1
    J tasked:                  Yes
    K tasked:                  Yes
    wK tasked:                  No
    OpenMP threads:             16
    Integrals threads:          16
    Memory (MB):               375
    Schwarz Cutoff:          0E+00
    Fitting Condition:       1E-12

   => Auxiliary Basis Set <=

  Basis Set: (6-311++G(D,P) AUX)
    Blend: AUG-CC-PVTZ-JKFIT
    Number of shells: 232
    Number of basis function: 792
    Number of Cartesian functions: 979
    Spherical Harmonics?: true
    Max angular momentum: 4

  ==> DFT Potential <==

   => Composite Functional: M06-2X <= 

    Hybrid M06-2X Meta-GGA XC Functional

    Y. Zhao and D. G. Truhlar,  Theor. Chem. Acc., 120, 215, 2008


    Deriv               =              1
    GGA                 =           TRUE
    Meta                =           TRUE

    Exchange Hybrid     =           TRUE
    MP2 Hybrid          =          FALSE

   => Exchange Functionals <=

    1.0000   XC_HYB_MGGA_X_M06_2X

   => Exact (HF) Exchange <=

    0.5400               HF 

   => Correlation Functionals <=

    1.0000   XC_MGGA_C_M06_2X

   => Molecular Quadrature <=

    Radial Scheme       =       TREUTLER
    Pruning Scheme      =           FLAT
    Nuclear Scheme      =       TREUTLER

    BS radius alpha     =              1
    Pruning alpha       =              1
    Radial Points       =             75
    Spherical Points    =            302
    Total Points        =         226370
    Total Blocks        =           1756
    Max Points          =            256
    Max Functions       =            150


  -Total Gradient:
     Atom            X                  Y                   Z
    ------   -----------------  -----------------  -----------------
       1       -0.107868839129    -0.035452472350     0.424664398649
       2        0.033406908337    -0.010832457501     0.058599530470
       3       -0.018136977708    -0.034651039492     0.026186933511
       4        0.001800616146     0.004565519474     0.003450469243
       5       -0.001213491269    -0.000501376236     0.000579725259
       6        0.004089647489    -0.002697584744     0.001170543078
       7       -0.000001367838     0.000029246764    -0.000277574580
       8       -0.000386089475     0.000370401902    -0.000453774131
       9        0.097786156001     0.085590735644    -0.544597024913
      10       -0.009308276596    -0.006195166400     0.029756705663


*** tstop() called on localhost.localdomain at Thu Jan 17 12:24:57 2019
Module time:
	user time   =      44.38 seconds =       0.74 minutes
	system time =       2.15 seconds =       0.04 minutes
	total time  =          3 seconds =       0.05 minutes
Total time:
	user time   =     256.47 seconds =       4.27 minutes
	system time =      10.72 seconds =       0.18 minutes
	total time  =         20 seconds =       0.33 minutes

			-----------------------------------------
			 OPTKING 2.0: for geometry optimizations 
			  - R.A. King,  Bethel University        
			-----------------------------------------

	Internal coordinates to be generated automatically.
	Detected frag 1 with atoms:  1 2 3 4 5 6 7 8 9 10
	---Fragment 1 Bond Connectivity---
	 1 : 2 3 9 10
	 2 : 1
	 3 : 1 4 6
	 4 : 3
	 5 : 6
	 6 : 3 5 7 8
	 7 : 6
	 8 : 6
	 9 : 1
	 10 : 1

	---Fragment 1 Geometry and Gradient---
	 C          -0.0961053878       -0.9623973485       -0.3353810217
	 O          -2.0089504302       -0.9146345205       -1.8127896994
	 O           0.5342165433        1.9797550623       -0.5897268208
	 H          -1.2495696528        1.5002143794       -1.7558957147
	 H           2.6694861310        4.6327037857       -2.4050204208
	 C           2.7698343681        2.6274927094       -1.9635955140
	 H           2.8927289277        1.5243102773       -3.7066581120
	 H           4.4041281093        2.2645084446       -0.7671437588
	 CL         -0.5415629702       -1.2874283537        2.1602423320
	 H           1.6434876730       -1.9816324767       -0.8167547390
	            -0.1078688391       -0.0354524724        0.4246643986
	             0.0334069083       -0.0108324575        0.0585995305
	            -0.0181369777       -0.0346510395        0.0261869335
	             0.0018006161        0.0045655195        0.0034504692
	            -0.0012134913       -0.0005013762        0.0005797253
	             0.0040896475       -0.0026975847        0.0011705431
	            -0.0000013678        0.0000292468       -0.0002775746
	            -0.0003860895        0.0003704019       -0.0004537741
	             0.0977861560        0.0855907356       -0.5445970249
	            -0.0093082766       -0.0061951664        0.0297567057

	Previous optimization step data not found.  Starting new optimization.

	---Fragment 1 Intrafragment Coordinates---
	 - Coordinate -           - BOHR/RAD -       - ANG/DEG -
	 H(2,4)           =         2.532073	       1.339915
	 R(1,2)           =         2.417435	       1.279252
	 R(1,3)           =         3.019645	       1.597928
	 R(1,9)           =         2.555820	       1.352481
	 R(1,10)          =         2.072859	       1.096910
	 R(3,4)           =         2.184446	       1.155959
	 R(3,6)           =         2.702789	       1.430254
	 R(5,6)           =         2.055674	       1.087816
	 R(6,7)           =         2.066490	       1.093540
	 R(6,8)           =         2.057710	       1.088893
	 B(1,3,4)         =         1.224539	      70.160936
	 B(1,3,6)         =         2.036421	     116.678306
	 B(2,1,3)         =         1.665380	      95.419224
	 B(2,1,9)         =         2.050317	     117.474511
	 B(2,1,10)        =         2.131572	     122.130077
	 B(3,1,9)         =         1.815777	     104.036352
	 B(3,1,10)        =         1.859120	     106.519753
	 B(3,6,5)         =         1.878161	     107.610679
	 B(3,6,7)         =         1.928379	     110.487988
	 B(3,6,8)         =         1.895591	     108.609351
	 B(4,3,6)         =         2.045063	     117.173473
	 B(5,6,7)         =         1.920389	     110.030180
	 B(5,6,8)         =         1.913144	     109.615071
	 B(7,6,8)         =         1.927344	     110.428690
	 B(9,1,10)        =         1.886511	     108.089090
	 D(1,3,6,5)       =         2.879037	     164.956651
	 D(1,3,6,7)       =         0.782069	      44.809241
	 D(1,3,6,8)       =        -1.334385	     -76.454640
	 D(2,1,3,4)       =         0.030406	       1.742164
	 D(2,1,3,6)       =        -1.910862	    -109.484340
	 D(4,3,1,9)       =        -2.065612	    -118.350827
	 D(4,3,1,10)      =         2.226538	     127.571218
	 D(4,3,6,5)       =         1.478049	      84.685945
	 D(4,3,6,7)       =        -0.618919	     -35.461465
	 D(4,3,6,8)       =        -2.735373	    -156.725346
	 D(6,3,1,9)       =         2.276305	     130.422669
	 D(6,3,1,10)      =         0.285269	      16.344714

	Current energy   :      -689.5982135181

	Generating empirical Hessian (Schlegel '84) for each fragment.
	Taking PRFO optimization step.
	Maximizing along 1 lowest eigenvalue of Hessian.

 RFO min eigenvalues
 -0.199636 -0.000000 -0.000000 -0.000000 -0.000000 -0.000000 -0.000000 -0.000000
  0.000000  0.000000  0.000000  0.000000  0.000000  0.000944  0.002307  0.033130
  0.055072  0.071039  0.074420  0.089064  0.104691  0.127867  0.160000  0.160000
  0.160000  0.161822  0.232354  0.241226  0.248877  0.280439  0.340510  0.344068
  0.349409  0.350663  0.409529  0.733349  1.749197

 RFO max eigenvalues
 -0.000000  0.000000
	|RFO target step|  :        0.4318451844
	RFO gradient       :       -0.4622854334
	RFO hessian        :        0.9049288539
	Projected Delta(E) :       -0.0971398853

	Back-transformation to cartesian coordinates...
	Could not converge backtransformation.
	Using first guess instead.

	--- Internal Coordinate Step in ANG or DEG, aJ/ANG or AJ/DEG ---
	 ---------------------------------------------------------------------------
	   Coordinate                Previous        Force       Change         New 
	   ----------                --------       ------       ------       ------
	    1 H(2,4)          =      1.339915    -0.035059    -0.009733     1.330182
	    2 R(1,2)          =      1.279252     0.523345     0.039707     1.318959
	    3 R(1,3)          =      1.597928     0.346187     0.051533     1.649461
	    4 R(1,9)          =      1.352481     4.610003     0.171219     1.523701
	    5 R(1,10)         =      1.096910     0.096622     0.014890     1.111800
	    6 R(3,4)          =      1.155959     0.019360     0.002451     1.158410
	    7 R(3,6)          =      1.430254    -0.005670    -0.000524     1.429730
	    8 R(5,6)          =      1.087816     0.005013     0.000773     1.088589
	    9 R(6,7)          =      1.093540    -0.001688    -0.000040     1.093499
	   10 R(6,8)          =      1.088893     0.005053     0.000620     1.089513
	   11 B(1,3,4)        =     70.160936    -0.000044     0.031512    70.192449
	   12 B(1,3,6)        =    116.678306     0.000411     0.710963   117.389269
	   13 B(2,1,3)        =     95.419224    -0.001920    -3.230923    92.188301
	   14 B(2,1,9)        =    117.474511     0.001052     2.594090   120.068601
	   15 B(2,1,10)       =    122.130077    -0.000875    -3.380995   118.749082
	   16 B(3,1,9)        =    104.036352     0.003320     5.456919   109.493271
	   17 B(3,1,10)       =    106.519753    -0.002304    -4.831177   101.688575
	   18 B(3,6,5)        =    107.610679     0.000164     0.358245   107.968924
	   19 B(3,6,7)        =    110.487988    -0.000023    -0.052700   110.435288
	   20 B(3,6,8)        =    108.609351    -0.000047    -0.112144   108.497207
	   21 B(4,3,6)        =    117.173473    -0.000110    -0.412853   116.760619
	   22 B(5,6,7)        =    110.030180    -0.000043    -0.072868   109.957312
	   23 B(5,6,8)        =    109.615071    -0.000042    -0.081187   109.533885
	   24 B(7,6,8)        =    110.428690    -0.000005    -0.031672   110.397018
	   25 B(9,1,10)       =    108.089090     0.000660     2.476181   110.565271
	   26 D(1,3,6,5)      =    164.956651     0.000013     0.119546   165.076196
	   27 D(1,3,6,7)      =     44.809241     0.000005     0.017809    44.827050
	   28 D(1,3,6,8)      =    -76.454640     0.000016     0.161160   -76.293480
	   29 D(2,1,3,4)      =      1.742164     0.000269     2.629123     4.371287
	   30 D(2,1,3,6)      =   -109.484340     0.000320     3.222051  -106.262290
	   31 D(4,3,1,9)      =   -118.350827    -0.000029    -0.330993  -118.681820
	   32 D(4,3,1,10)     =    127.571218    -0.000317    -3.238061   124.333156
	   33 D(4,3,6,5)      =     84.685945    -0.000006    -0.045617    84.640328
	   34 D(4,3,6,7)      =    -35.461465    -0.000014    -0.147353   -35.608818
	   35 D(4,3,6,8)      =   -156.725346    -0.000002    -0.004002  -156.729348
	   36 D(6,3,1,9)      =    130.422669     0.000021     0.261934   130.684603
	   37 D(6,3,1,10)     =     16.344714    -0.000266    -2.645134    13.699580
	 ---------------------------------------------------------------------------
	Successfully symmetrized geometry.

  ==> Convergence Check <==

  Measures of convergence in internal coordinates in au.
  Criteria marked as inactive (o), active & met (*), and active & unmet ( ).
  --------------------------------------------------------------------------------------------- ~
   Step     Total Energy     Delta E     MAX Force     RMS Force      MAX Disp      RMS Disp    ~
  --------------------------------------------------------------------------------------------- ~
    Convergence Criteria    1.00e-06 *    3.00e-04 *             o    1.20e-03 *             o  ~
  --------------------------------------------------------------------------------------------- ~
      1    -689.59821352   -6.90e+02      5.60e-01      9.36e-02 o    3.24e-01      6.55e-02 o  ~
  ---------------------------------------------------------------------------------------------

	Writing optimization data to binary file.
	Structure for next step:
	Cartesian Geometry (in Angstrom)
	    C    -0.0657900490  -0.5268846603  -0.1474799557
	    O    -1.0536855028  -0.4532247710  -1.0182778885
	    O     0.2939804773   1.0730560616  -0.3248950575
	    H    -0.6498490203   0.8119794460  -0.9437153579
	    H     1.4272886274   2.4619133672  -1.3128920464
	    C     1.4746067509   1.4041209123  -1.0601811530
	    H     1.5367057652   0.8047947329  -1.9727007487
	    H     2.3404465171   1.2196779204  -0.4250895512
	   CL    -0.3603200363  -0.8223409259   1.3179964730
	    H     0.8869286623  -1.0078795076  -0.4590406429
			--------------------------
			 OPTKING Finished Execution 
			--------------------------

    Structure for next step:
    Molecular point group: c1
    Full point group: C1

    Geometry (in Angstrom), charge = 0, multiplicity = 1:

    C           -0.042240430462    -0.485307919419    -0.199142629931
    O           -1.030135884310    -0.411648030138    -1.069940562782
    O            0.317530095788     1.114632802463    -0.376557731807
    H           -0.626299401787     0.853556186801    -0.995378032138
    H            1.450838245912     2.503490108013    -1.364554720663
    C            1.498156369446     1.445697653139    -1.111843827219
    H            1.560255383683     0.846371473696    -2.024363422982
    H            2.363996135600     1.261254661242    -0.476752225470
    CL          -0.336770417749    -0.780764185058     1.266333798700
    H            0.910478280866    -0.966302766809    -0.510703317144

gradient() will perform analytic gradient computation.

*** tstart() called on localhost.localdomain
*** at Thu Jan 17 12:24:57 2019

   => Loading Basis Set <=

    Name: 6-311++G(D,P)
    Role: ORBITAL
    Keyword: BASIS
    atoms 1, 6         entry C          line   119 file /root/psi4conda/share/psi4/basis/6-311ppg_d_p_.gbs 
    atoms 2-3          entry O          line   161 file /root/psi4conda/share/psi4/basis/6-311ppg_d_p_.gbs 
    atoms 4-5, 7-8, 10 entry H          line    42 file /root/psi4conda/share/psi4/basis/6-311ppg_d_p_.gbs 
    atoms 9            entry CL         line   458 file /root/psi4conda/share/psi4/basis/6-311ppg_d_p_.gbs 


         ---------------------------------------------------------
                                   SCF
            by Justin Turney, Rob Parrish, Andy Simmonett
                             and Daniel Smith
                              RKS Reference
                       16 Threads,    500 MiB Core
         ---------------------------------------------------------

  ==> Geometry <==

    Molecular point group: c1
    Full point group: C1

    Geometry (in Angstrom), charge = 0, multiplicity = 1:

       Center              X                  Y                   Z               Mass       
    ------------   -----------------  -----------------  -----------------  -----------------
         C           -0.042240430462    -0.485307919419    -0.199142629931    12.000000000000
         O           -1.030135884310    -0.411648030138    -1.069940562782    15.994914619560
         O            0.317530095788     1.114632802463    -0.376557731807    15.994914619560
         H           -0.626299401787     0.853556186801    -0.995378032138     1.007825032070
         H            1.450838245912     2.503490108013    -1.364554720663     1.007825032070
         C            1.498156369446     1.445697653139    -1.111843827219    12.000000000000
         H            1.560255383683     0.846371473696    -2.024363422982     1.007825032070
         H            2.363996135600     1.261254661242    -0.476752225470     1.007825032070
         CL          -0.336770417749    -0.780764185058     1.266333798700    34.968852682000
         H            0.910478280866    -0.966302766809    -0.510703317144     1.007825032070

  Running in c1 symmetry.

  Rotational constants: A =      0.25620  B =      0.09002  C =      0.07266 [cm^-1]
  Rotational constants: A =   7680.70104  B =   2698.82446  C =   2178.33004 [MHz]
  Nuclear repulsion =  246.284025700632213

  Charge       = 0
  Multiplicity = 1
  Electrons    = 50
  Nalpha       = 25
  Nbeta        = 25

  ==> Algorithm <==

  SCF Algorithm Type is DF.
  DIIS enabled.
  MOM disabled.
  Fractional occupation disabled.
  Guess Type is READ.
  Energy threshold   = 1.00e-08
  Density threshold  = 1.00e-08
  Integral threshold = 0.00e+00

  ==> Primary Basis <==

  Basis Set: 6-311++G(D,P)
    Blend: 6-311++G(D,P)
    Number of shells: 79
    Number of basis function: 153
    Number of Cartesian functions: 158
    Spherical Harmonics?: true
    Max angular momentum: 2

  ==> DFT Potential <==

   => Composite Functional: M06-2X <= 

    Hybrid M06-2X Meta-GGA XC Functional

    Y. Zhao and D. G. Truhlar,  Theor. Chem. Acc., 120, 215, 2008


    Deriv               =              1
    GGA                 =           TRUE
    Meta                =           TRUE

    Exchange Hybrid     =           TRUE
    MP2 Hybrid          =          FALSE

   => Exchange Functionals <=

    1.0000   XC_HYB_MGGA_X_M06_2X

   => Exact (HF) Exchange <=

    0.5400               HF 

   => Correlation Functionals <=

    1.0000   XC_MGGA_C_M06_2X

   => Molecular Quadrature <=

    Radial Scheme       =       TREUTLER
    Pruning Scheme      =           FLAT
    Nuclear Scheme      =       TREUTLER

    BS radius alpha     =              1
    Pruning alpha       =              1
    Radial Points       =             75
    Spherical Points    =            302
    Total Points        =         226362
    Total Blocks        =           1751
    Max Points          =            256
    Max Functions       =            150

   => Loading Basis Set <=

    Name: (6-311++G(D,P) AUX)
    Role: JKFIT
    Keyword: DF_BASIS_SCF
    atoms 1, 6         entry C          line   162 file /root/psi4conda/share/psi4/basis/aug-cc-pvtz-jkfit.gbs 
    atoms 2-3          entry O          line   286 file /root/psi4conda/share/psi4/basis/aug-cc-pvtz-jkfit.gbs 
    atoms 4-5, 7-8, 10 entry H          line    70 file /root/psi4conda/share/psi4/basis/aug-cc-pvtz-jkfit.gbs 
    atoms 9            entry CL         line   816 file /root/psi4conda/share/psi4/basis/aug-cc-pvtz-jkfit.gbs 

  Reading orbitals from file 180, no projection.

  ==> Pre-Iterations <==

   -------------------------------------------------------
    Irrep   Nso     Nmo     Nalpha   Nbeta   Ndocc  Nsocc
   -------------------------------------------------------
     A        153     153       0       0       0       0
   -------------------------------------------------------
    Total     153     153      25      25      25       0
   -------------------------------------------------------

  ==> Integral Setup <==

  DFHelper Memory: AOs need 0.177 [GiB]; user supplied 0.366 [GiB]. Using in-core AOs.

  ==> MemDFJK: Density-Fitted J/K Matrices <==

    J tasked:                   Yes
    K tasked:                   Yes
    wK tasked:                   No
    OpenMP threads:              16
    Memory (MB):                375
    Algorithm:                 Core
    Schwarz Cutoff:           1E-12
    Mask sparsity (%):       3.0843
    Fitting Condition:        1E-12

   => Auxiliary Basis Set <=

  Basis Set: (6-311++G(D,P) AUX)
    Blend: AUG-CC-PVTZ-JKFIT
    Number of shells: 232
    Number of basis function: 792
    Number of Cartesian functions: 979
    Spherical Harmonics?: true
    Max angular momentum: 4

  Minimum eigenvalue in the overlap matrix is 1.5007225259E-04.
  Using Symmetric Orthogonalization.

  SCF Guess: Orbitals guess was supplied from a previous computation.

  ==> Iterations <==

                           Total Energy        Delta E     RMS |[F,P]|

   @DF-RKS iter   0:  -689.72138032732130   -6.89721e+02   1.35492e-02 
   @DF-RKS iter   1:  -689.71822836689933    3.15196e-03   1.91873e-03 
   @DF-RKS iter   2:  -689.71939060943748   -1.16224e-03   9.45155e-04 DIIS
   @DF-RKS iter   3:  -689.72051074006015   -1.12013e-03   2.26977e-04 DIIS
   @DF-RKS iter   4:  -689.72060608597963   -9.53459e-05   1.03441e-04 DIIS
   @DF-RKS iter   5:  -689.72061344360520   -7.35763e-06   4.11117e-05 DIIS
   @DF-RKS iter   6:  -689.72061593094634   -2.48734e-06   1.16874e-05 DIIS
   @DF-RKS iter   7:  -689.72061607901412   -1.48068e-07   4.37664e-06 DIIS
   @DF-RKS iter   8:  -689.72061610300489   -2.39908e-08   1.37698e-06 DIIS
   @DF-RKS iter   9:  -689.72061610602611   -3.02123e-09   1.94817e-07 DIIS
   @DF-RKS iter  10:  -689.72061610626099   -2.34877e-10   7.00258e-08 DIIS
   @DF-RKS iter  11:  -689.72061610628214   -2.11458e-11   3.20386e-08 DIIS
   @DF-RKS iter  12:  -689.72061610628339   -1.25056e-12   1.30286e-08 DIIS
   @DF-RKS iter  13:  -689.72061610628464   -1.25056e-12   1.97500e-09 DIIS

  ==> Post-Iterations <==

    Orbital Energies [Eh]
    ---------------------

    Doubly Occupied:                                                      

       1A   -102.690173     2A    -19.684656     3A    -19.586866  
       4A    -10.700522     5A    -10.614710     6A     -9.840186  
       7A     -7.565073     8A     -7.558491     9A     -7.557686  
      10A     -1.233790    11A     -1.119610    12A     -1.024242  
      13A     -0.821116    14A     -0.720338    15A     -0.639264  
      16A     -0.602940    17A     -0.580135    18A     -0.539765  
      19A     -0.523941    20A     -0.477248    21A     -0.461593  
      22A     -0.397356    23A     -0.388900    24A     -0.348403  
      25A     -0.342605  

    Virtual:                                                              

      26A     -0.008805    27A      0.012170    28A      0.023130  
      29A      0.024929    30A      0.045244    31A      0.047691  
      32A      0.050730    33A      0.068791    34A      0.075836  
      35A      0.088591    36A      0.099308    37A      0.110948  
      38A      0.117125    39A      0.123747    40A      0.132470  
      41A      0.134135    42A      0.145448    43A      0.179712  
      44A      0.184251    45A      0.195650    46A      0.214527  
      47A      0.220999    48A      0.231753    49A      0.235331  
      50A      0.252547    51A      0.269232    52A      0.285995  
      53A      0.307903    54A      0.316104    55A      0.319889  
      56A      0.332152    57A      0.333788    58A      0.395819  
      59A      0.408529    60A      0.452035    61A      0.466251  
      62A      0.481014    63A      0.502590    64A      0.513463  
      65A      0.543965    66A      0.558182    67A      0.598676  
      68A      0.607158    69A      0.652887    70A      0.669087  
      71A      0.681904    72A      0.693337    73A      0.718289  
      74A      0.844880    75A      0.894739    76A      0.927747  
      77A      0.939051    78A      0.978236    79A      0.986582  
      80A      1.042225    81A      1.050777    82A      1.081882  
      83A      1.163650    84A      1.190708    85A      1.211568  
      86A      1.232386    87A      1.270122    88A      1.290577  
      89A      1.294659    90A      1.379616    91A      1.448642  
      92A      1.466882    93A      1.495676    94A      1.554640  
      95A      1.577830    96A      1.605974    97A      1.627431  
      98A      1.688370    99A      1.704178   100A      1.724436  
     101A      1.760651   102A      1.809601   103A      1.839834  
     104A      1.937325   105A      1.963834   106A      2.012317  
     107A      2.065568   108A      2.144613   109A      2.155290  
     110A      2.243322   111A      2.310567   112A      2.385674  
     113A      2.437432   114A      2.454894   115A      2.467750  
     116A      2.522887   117A      2.536567   118A      2.572645  
     119A      2.603455   120A      2.709358   121A      2.743634  
     122A      2.799989   123A      2.925501   124A      2.929216  
     125A      2.987868   126A      3.101771   127A      3.163882  
     128A      3.168176   129A      3.243505   130A      3.410018  
     131A      3.560006   132A      3.598834   133A      3.721109  
     134A      3.807764   135A      3.830803   136A      3.922581  
     137A      4.040073   138A      4.116910   139A      5.200032  
     140A      5.227978   141A      5.278026   142A      5.306605  
     143A      5.608881   144A      5.726197   145A     10.038879  
     146A     23.768643   147A     23.964002   148A     25.997482  
     149A     26.039793   150A     26.631686   151A     49.981522  
     152A     50.103931   153A    216.150123  

    Final Occupation by Irrep:
              A 
    DOCC [    25 ]

  Energy converged.

  @DF-RKS Final Energy:  -689.72061610628464

   => Energetics <=

    Nuclear Repulsion Energy =            246.2840257006322133
    One-Electron Energy =               -1437.2807523983126430
    Two-Electron Energy =                 529.0571475616366115
    DFT Exchange-Correlation Energy =     -27.7810369702407485
    Empirical Dispersion Energy =           0.0000000000000000
    VV10 Nonlocal Energy =                  0.0000000000000000
    Total Energy =                       -689.7206161062846377



Properties will be evaluated at   0.000000,   0.000000,   0.000000 [a0]

Properties computed using the SCF density matrix

  Nuclear Dipole Moment: [e a0]
     X:     5.6103      Y:     4.9352      Z:    -6.2020

  Electronic Dipole Moment: [e a0]
     X:    -4.1901      Y:    -4.3378      Z:     6.2042

  Dipole Moment: [e a0]
     X:     1.4201      Y:     0.5974      Z:     0.0022     Total:     1.5407

  Dipole Moment: [D]
     X:     3.6096      Y:     1.5184      Z:     0.0055     Total:     3.9159


*** tstop() called on localhost.localdomain at Thu Jan 17 12:25:10 2019
Module time:
	user time   =     168.71 seconds =       2.81 minutes
	system time =       4.64 seconds =       0.08 minutes
	total time  =         13 seconds =       0.22 minutes
Total time:
	user time   =     425.95 seconds =       7.10 minutes
	system time =      15.45 seconds =       0.26 minutes
	total time  =         33 seconds =       0.55 minutes

*** tstart() called on localhost.localdomain
*** at Thu Jan 17 12:25:10 2019


         ------------------------------------------------------------
                                   SCF GRAD                          
                          Rob Parrish, Justin Turney,                
                       Andy Simmonett, and Alex Sokolov              
         ------------------------------------------------------------

  ==> Geometry <==

    Molecular point group: c1
    Full point group: C1

    Geometry (in Angstrom), charge = 0, multiplicity = 1:

       Center              X                  Y                   Z               Mass       
    ------------   -----------------  -----------------  -----------------  -----------------
         C           -0.042240430462    -0.485307919419    -0.199142629931    12.000000000000
         O           -1.030135884310    -0.411648030138    -1.069940562782    15.994914619560
         O            0.317530095788     1.114632802463    -0.376557731807    15.994914619560
         H           -0.626299401787     0.853556186801    -0.995378032138     1.007825032070
         H            1.450838245912     2.503490108013    -1.364554720663     1.007825032070
         C            1.498156369446     1.445697653139    -1.111843827219    12.000000000000
         H            1.560255383683     0.846371473696    -2.024363422982     1.007825032070
         H            2.363996135600     1.261254661242    -0.476752225470     1.007825032070
         CL          -0.336770417749    -0.780764185058     1.266333798700    34.968852682000
         H            0.910478280866    -0.966302766809    -0.510703317144     1.007825032070

  Nuclear repulsion =  246.284025700632213

  ==> Basis Set <==

  Basis Set: 6-311++G(D,P)
    Blend: 6-311++G(D,P)
    Number of shells: 79
    Number of basis function: 153
    Number of Cartesian functions: 158
    Spherical Harmonics?: true
    Max angular momentum: 2

  ==> DFJKGrad: Density-Fitted SCF Gradients <==

    Gradient:                    1
    J tasked:                  Yes
    K tasked:                  Yes
    wK tasked:                  No
    OpenMP threads:             16
    Integrals threads:          16
    Memory (MB):               375
    Schwarz Cutoff:          0E+00
    Fitting Condition:       1E-12

   => Auxiliary Basis Set <=

  Basis Set: (6-311++G(D,P) AUX)
    Blend: AUG-CC-PVTZ-JKFIT
    Number of shells: 232
    Number of basis function: 792
    Number of Cartesian functions: 979
    Spherical Harmonics?: true
    Max angular momentum: 4

  ==> DFT Potential <==

   => Composite Functional: M06-2X <= 

    Hybrid M06-2X Meta-GGA XC Functional

    Y. Zhao and D. G. Truhlar,  Theor. Chem. Acc., 120, 215, 2008


    Deriv               =              1
    GGA                 =           TRUE
    Meta                =           TRUE

    Exchange Hybrid     =           TRUE
    MP2 Hybrid          =          FALSE

   => Exchange Functionals <=

    1.0000   XC_HYB_MGGA_X_M06_2X

   => Exact (HF) Exchange <=

    0.5400               HF 

   => Correlation Functionals <=

    1.0000   XC_MGGA_C_M06_2X

   => Molecular Quadrature <=

    Radial Scheme       =       TREUTLER
    Pruning Scheme      =           FLAT
    Nuclear Scheme      =       TREUTLER

    BS radius alpha     =              1
    Pruning alpha       =              1
    Radial Points       =             75
    Spherical Points    =            302
    Total Points        =         226362
    Total Blocks        =           1751
    Max Points          =            256
    Max Functions       =            150


  -Total Gradient:
     Atom            X                  Y                   Z
    ------   -----------------  -----------------  -----------------
       1       -0.037478429472    -0.024058256639     0.174475921469
       2       -0.003705029716    -0.002253028113    -0.005020082042
       3       -0.002374449709    -0.011310167153    -0.001584675817
       4       -0.002475049407     0.006760313442     0.002968538663
       5        0.000109754172    -0.000005658344    -0.000108597832
       6        0.002495571052     0.002112748313    -0.001878145143
       7        0.000009364708     0.000330732230     0.000102075245
       8       -0.000318422424    -0.000112743869     0.000215794567
       9        0.037591547367     0.033597737858    -0.174606016078
      10        0.006228988265    -0.004792879085     0.004956269250


*** tstop() called on localhost.localdomain at Thu Jan 17 12:25:16 2019
Module time:
	user time   =      55.66 seconds =       0.93 minutes
	system time =       2.84 seconds =       0.05 minutes
	total time  =          6 seconds =       0.10 minutes
Total time:
	user time   =     481.65 seconds =       8.03 minutes
	system time =      18.29 seconds =       0.30 minutes
	total time  =         39 seconds =       0.65 minutes

			-----------------------------------------
			 OPTKING 2.0: for geometry optimizations 
			  - R.A. King,  Bethel University        
			-----------------------------------------

	Previous internal coordinate definitions found.
	---Fragment 1 Geometry and Gradient---
	 C          -0.0798228453       -0.9170990578       -0.3763250320
	 O          -1.9466747010       -0.7779020401       -2.0218946421
	 O           0.6000449200        2.1063507354       -0.7115909863
	 H          -1.1835343466        1.6129874321       -1.8809918794
	 H           2.7416869479        4.7309106805       -2.5786347154
	 C           2.8311052425        2.7319726354       -2.1010803360
	 H           2.9484553725        1.5994102920       -3.8254924629
	 H           4.4673052755        2.3834258936       -0.9009311394
	 CL         -0.6364038592       -1.4754304841        2.3930240724
	 H           1.7205546008       -1.8260475907       -0.9650894046
	            -0.0374784295       -0.0240582566        0.1744759215
	            -0.0037050297       -0.0022530281       -0.0050200820
	            -0.0023744497       -0.0113101672       -0.0015846758
	            -0.0024750494        0.0067603134        0.0029685387
	             0.0001097542       -0.0000056583       -0.0001085978
	             0.0024955711        0.0021127483       -0.0018781451
	             0.0000093647        0.0003307322        0.0001020752
	            -0.0003184224       -0.0001127439        0.0002157946
	             0.0375915474        0.0335977379       -0.1746060161
	             0.0062289883       -0.0047928791        0.0049562693

	---Fragment 1 Intrafragment Coordinates---
	 - Coordinate -           - BOHR/RAD -       - ANG/DEG -
	 H(2,4)           =         2.513680	       1.330182
	 R(1,2)           =         2.492471	       1.318959
	 R(1,3)           =         3.117029	       1.649461
	 R(1,9)           =         2.879377	       1.523701
	 R(1,10)          =         2.100997	       1.111800
	 R(3,4)           =         2.189078	       1.158410
	 R(3,6)           =         2.701798	       1.429730
	 R(5,6)           =         2.057136	       1.088589
	 R(6,7)           =         2.066414	       1.093499
	 R(6,8)           =         2.058882	       1.089513
	 B(1,3,4)         =         1.225089	      70.192449
	 B(1,3,6)         =         2.048829	     117.389269
	 B(2,1,3)         =         1.608989	      92.188301
	 B(2,1,9)         =         2.095592	     120.068601
	 B(2,1,10)        =         2.072562	     118.749082
	 B(3,1,9)         =         1.911018	     109.493271
	 B(3,1,10)        =         1.774800	     101.688575
	 B(3,6,5)         =         1.884413	     107.968924
	 B(3,6,7)         =         1.927459	     110.435288
	 B(3,6,8)         =         1.893633	     108.497207
	 B(4,3,6)         =         2.037857	     116.760619
	 B(5,6,7)         =         1.919117	     109.957312
	 B(5,6,8)         =         1.911727	     109.533885
	 B(7,6,8)         =         1.926791	     110.397018
	 B(9,1,10)        =         1.929728	     110.565271
	 D(1,3,6,5)       =         2.881123	     165.076196
	 D(1,3,6,7)       =         0.782380	      44.827050
	 D(1,3,6,8)       =        -1.331572	     -76.293480
	 D(2,1,3,4)       =         0.076293	       4.371287
	 D(2,1,3,6)       =        -1.854627	    -106.262290
	 D(4,3,1,9)       =        -2.071389	    -118.681820
	 D(4,3,1,10)      =         2.170023	     124.333156
	 D(4,3,6,5)       =         1.477252	      84.640328
	 D(4,3,6,7)       =        -0.621491	     -35.608818
	 D(4,3,6,8)       =        -2.735443	    -156.729348
	 D(6,3,1,9)       =         2.280877	     130.684603
	 D(6,3,1,10)      =         0.239103	      13.699580

	Current energy   :      -689.7206161063

	Energy change for the previous step:
		Projected    :        -0.0971398853
		Actual       :        -0.1224025882

	Performing Bofill update.
	Previous computed or guess Hessian on step 1.
	Steps to be used in Hessian update: 1
	Taking PRFO optimization step.
	Maximizing along 1 lowest eigenvalue of Hessian.

 RFO min eigenvalues
 -0.031797 -0.000000 -0.000000 -0.000000 -0.000000 -0.000000 -0.000000  0.000000
  0.000000  0.000000  0.000000  0.000000  0.000000  0.000945  0.003034  0.033594
  0.055108  0.071044  0.074419  0.096564  0.107575  0.137370  0.159976  0.159997
  0.159998  0.169856  0.232187  0.240183  0.280317  0.289575  0.344061  0.344371
  0.349417  0.350674  0.409387  0.742397  1.162251

 RFO max eigenvalues
 -0.000000  0.000000
	|RFO target step|  :        0.3224139148
	RFO gradient       :       -0.0986227850
	RFO hessian        :        0.2813479993
	Projected Delta(E) :       -0.0155570284

	Back-transformation to cartesian coordinates...
	Could not converge backtransformation.
	Using first guess instead.

	--- Internal Coordinate Step in ANG or DEG, aJ/ANG or AJ/DEG ---
	 ---------------------------------------------------------------------------
	   Coordinate                Previous        Force       Change         New 
	   ----------                --------       ------       ------       ------
	    1 H(2,4)          =      1.330182    -0.020096    -0.025707     1.304476
	    2 R(1,2)          =      1.318959    -0.044528    -0.003108     1.315850
	    3 R(1,3)          =      1.649461     0.043764     0.010278     1.659738
	    4 R(1,9)          =      1.523701     1.496502     0.086369     1.610070
	    5 R(1,10)         =      1.111800    -0.049475    -0.009863     1.101937
	    6 R(3,4)          =      1.158410    -0.000765     0.000897     1.159307
	    7 R(3,6)          =      1.429730    -0.026155    -0.005364     1.424366
	    8 R(5,6)          =      1.088589     0.000205     0.000476     1.089066
	    9 R(6,7)          =      1.093499     0.002204     0.001213     1.094712
	   10 R(6,8)          =      1.089513     0.000794     0.000639     1.090152
	   11 B(1,3,4)        =     70.192449    -0.000183    -2.448191    67.744258
	   12 B(1,3,6)        =    117.389269    -0.000068    -0.789313   116.599956
	   13 B(2,1,3)        =     92.188301    -0.000049     0.458336    92.646637
	   14 B(2,1,9)        =    120.068601    -0.000118    -1.703249   118.365352
	   15 B(2,1,10)       =    118.749082    -0.000085     0.013899   118.762981
	   16 B(3,1,9)        =    109.493271    -0.000114    -1.703012   107.790259
	   17 B(3,1,10)       =    101.688575    -0.000251    -0.328882   101.359693
	   18 B(3,6,5)        =    107.968924    -0.000021    -0.232862   107.736062
	   19 B(3,6,7)        =    110.435288    -0.000015    -0.066545   110.368743
	   20 B(3,6,8)        =    108.497207     0.000051     0.321862   108.819070
	   21 B(4,3,6)        =    116.760619    -0.000060    -1.314939   115.445680
	   22 B(5,6,7)        =    109.957312     0.000012     0.057635   110.014947
	   23 B(5,6,8)        =    109.533885    -0.000012    -0.038382   109.495503
	   24 B(7,6,8)        =    110.397018    -0.000015    -0.042833   110.354185
	   25 B(9,1,10)       =    110.565271     0.000437     2.545612   113.110883
	   26 D(1,3,6,5)      =    165.076196    -0.000033    -2.117042   162.959154
	   27 D(1,3,6,7)      =     44.827050    -0.000031    -2.004244    42.822806
	   28 D(1,3,6,8)      =    -76.293480    -0.000032    -2.115836   -78.409316
	   29 D(2,1,3,4)      =      4.371287    -0.000048    -6.103872    -1.732585
	   30 D(2,1,3,6)      =   -106.262290    -0.000018    -3.786960  -110.049250
	   31 D(4,3,1,9)      =   -118.681820    -0.000006    -4.002567  -122.684388
	   32 D(4,3,1,10)     =    124.333156    -0.000081    -6.025168   118.307989
	   33 D(4,3,6,5)      =     84.640328     0.000030     1.663599    86.303926
	   34 D(4,3,6,7)      =    -35.608818     0.000032     1.776396   -33.832422
	   35 D(4,3,6,8)      =   -156.729348     0.000031     1.664805  -155.064543
	   36 D(6,3,1,9)      =    130.684603     0.000024    -1.685656   128.998948
	   37 D(6,3,1,10)     =     13.699580    -0.000050    -3.708256     9.991324
	 ---------------------------------------------------------------------------
	Successfully symmetrized geometry.

  ==> Convergence Check <==

  Measures of convergence in internal coordinates in au.
  Criteria marked as inactive (o), active & met (*), and active & unmet ( ).
  ---------------------------------------------------------------------------------------------
   Step     Total Energy     Delta E     MAX Force     RMS Force      MAX Disp      RMS Disp   
  ---------------------------------------------------------------------------------------------
    Convergence Criteria    1.00e-06 *    3.00e-04 *             o    1.20e-03 *             o
  ---------------------------------------------------------------------------------------------
      2    -689.72061611   -1.22e-01      1.82e-01      3.00e-02 o    1.63e-01      4.64e-02 o  ~
  ---------------------------------------------------------------------------------------------

	Writing optimization data to binary file.
	Structure for next step:
	Cartesian Geometry (in Angstrom)
	    C    -0.0432545403  -0.4879706126  -0.2262466586
	    O    -1.0750459835  -0.3989211654  -1.0379971852
	    O     0.3154347935   1.1251423748  -0.3809723432
	    H    -0.5913090839   0.8125330053  -1.0321889154
	    H     1.4451135868   2.4997796444  -1.3780634060
	    C     1.5021888433   1.4485747928  -1.0991821110
	    H     1.5859622948   0.8269274954  -1.9963620736
	    H     2.3616624945   1.2912673500  -0.4472693623
	   CL    -0.3193462163  -0.7832410798   1.3322504203
	    H     0.8844021881  -0.9531118211  -0.5968710366
			--------------------------
			 OPTKING Finished Execution 
			--------------------------

    Structure for next step:
    Molecular point group: c1
    Full point group: C1

    Geometry (in Angstrom), charge = 0, multiplicity = 1:

    C           -0.042425854820    -0.490746570852    -0.252209958688
    O           -1.074217297976    -0.401697123627    -1.063960485240
    O            0.316263478991     1.122366416569    -0.406935643234
    H           -0.590480398391     0.809757047075    -1.058152215417
    H            1.445942272261     2.497003686175    -1.404026706007
    C            1.503017528777     1.445798834515    -1.125145411041
    H            1.586790980277     0.824151537089    -2.022325373611
    H            2.362491179959     1.288491391710    -0.473232662312
    CL          -0.318517530796    -0.786017038107     1.306287120276
    H            0.885230873552    -0.955887779364    -0.622834336700

gradient() will perform analytic gradient computation.

*** tstart() called on localhost.localdomain
*** at Thu Jan 17 12:25:16 2019

   => Loading Basis Set <=

    Name: 6-311++G(D,P)
    Role: ORBITAL
    Keyword: BASIS
    atoms 1, 6         entry C          line   119 file /root/psi4conda/share/psi4/basis/6-311ppg_d_p_.gbs 
    atoms 2-3          entry O          line   161 file /root/psi4conda/share/psi4/basis/6-311ppg_d_p_.gbs 
    atoms 4-5, 7-8, 10 entry H          line    42 file /root/psi4conda/share/psi4/basis/6-311ppg_d_p_.gbs 
    atoms 9            entry CL         line   458 file /root/psi4conda/share/psi4/basis/6-311ppg_d_p_.gbs 


         ---------------------------------------------------------
                                   SCF
            by Justin Turney, Rob Parrish, Andy Simmonett
                             and Daniel Smith
                              RKS Reference
                       16 Threads,    500 MiB Core
         ---------------------------------------------------------

  ==> Geometry <==

    Molecular point group: c1
    Full point group: C1

    Geometry (in Angstrom), charge = 0, multiplicity = 1:

       Center              X                  Y                   Z               Mass       
    ------------   -----------------  -----------------  -----------------  -----------------
         C           -0.042425854820    -0.490746570852    -0.252209958688    12.000000000000
         O           -1.074217297976    -0.401697123627    -1.063960485240    15.994914619560
         O            0.316263478991     1.122366416569    -0.406935643234    15.994914619560
         H           -0.590480398391     0.809757047075    -1.058152215417     1.007825032070
         H            1.445942272261     2.497003686175    -1.404026706007     1.007825032070
         C            1.503017528777     1.445798834515    -1.125145411041    12.000000000000
         H            1.586790980277     0.824151537089    -2.022325373611     1.007825032070
         H            2.362491179959     1.288491391710    -0.473232662312     1.007825032070
         CL          -0.318517530796    -0.786017038107     1.306287120276    34.968852682000
         H            0.885230873552    -0.955887779364    -0.622834336700     1.007825032070

  Running in c1 symmetry.

  Rotational constants: A =      0.24604  B =      0.08821  C =      0.07077 [cm^-1]
  Rotational constants: A =   7376.17762  B =   2644.56858  C =   2121.59258 [MHz]
  Nuclear repulsion =  242.846875716126704

  Charge       = 0
  Multiplicity = 1
  Electrons    = 50
  Nalpha       = 25
  Nbeta        = 25

  ==> Algorithm <==

  SCF Algorithm Type is DF.
  DIIS enabled.
  MOM disabled.
  Fractional occupation disabled.
  Guess Type is READ.
  Energy threshold   = 1.00e-08
  Density threshold  = 1.00e-08
  Integral threshold = 0.00e+00

  ==> Primary Basis <==

  Basis Set: 6-311++G(D,P)
    Blend: 6-311++G(D,P)
    Number of shells: 79
    Number of basis function: 153
    Number of Cartesian functions: 158
    Spherical Harmonics?: true
    Max angular momentum: 2

  ==> DFT Potential <==

   => Composite Functional: M06-2X <= 

    Hybrid M06-2X Meta-GGA XC Functional

    Y. Zhao and D. G. Truhlar,  Theor. Chem. Acc., 120, 215, 2008


    Deriv               =              1
    GGA                 =           TRUE
    Meta                =           TRUE

    Exchange Hybrid     =           TRUE
    MP2 Hybrid          =          FALSE

   => Exchange Functionals <=

    1.0000   XC_HYB_MGGA_X_M06_2X

   => Exact (HF) Exchange <=

    0.5400               HF 

   => Correlation Functionals <=

    1.0000   XC_MGGA_C_M06_2X

   => Molecular Quadrature <=

    Radial Scheme       =       TREUTLER
    Pruning Scheme      =           FLAT
    Nuclear Scheme      =       TREUTLER

    BS radius alpha     =              1
    Pruning alpha       =              1
    Radial Points       =             75
    Spherical Points    =            302
    Total Points        =         226362
    Total Blocks        =           1762
    Max Points          =            256
    Max Functions       =            150

   => Loading Basis Set <=

    Name: (6-311++G(D,P) AUX)
    Role: JKFIT
    Keyword: DF_BASIS_SCF
    atoms 1, 6         entry C          line   162 file /root/psi4conda/share/psi4/basis/aug-cc-pvtz-jkfit.gbs 
    atoms 2-3          entry O          line   286 file /root/psi4conda/share/psi4/basis/aug-cc-pvtz-jkfit.gbs 
    atoms 4-5, 7-8, 10 entry H          line    70 file /root/psi4conda/share/psi4/basis/aug-cc-pvtz-jkfit.gbs 
    atoms 9            entry CL         line   816 file /root/psi4conda/share/psi4/basis/aug-cc-pvtz-jkfit.gbs 

  Reading orbitals from file 180, no projection.

  ==> Pre-Iterations <==

   -------------------------------------------------------
    Irrep   Nso     Nmo     Nalpha   Nbeta   Ndocc  Nsocc
   -------------------------------------------------------
     A        153     153       0       0       0       0
   -------------------------------------------------------
    Total     153     153      25      25      25       0
   -------------------------------------------------------

  ==> Integral Setup <==

  DFHelper Memory: AOs need 0.176 [GiB]; user supplied 0.366 [GiB]. Using in-core AOs.

  ==> MemDFJK: Density-Fitted J/K Matrices <==

    J tasked:                   Yes
    K tasked:                   Yes
    wK tasked:                   No
    OpenMP threads:              16
    Memory (MB):                375
    Algorithm:                 Core
    Schwarz Cutoff:           1E-12
    Mask sparsity (%):       3.2552
    Fitting Condition:        1E-12

   => Auxiliary Basis Set <=

  Basis Set: (6-311++G(D,P) AUX)
    Blend: AUG-CC-PVTZ-JKFIT
    Number of shells: 232
    Number of basis function: 792
    Number of Cartesian functions: 979
    Spherical Harmonics?: true
    Max angular momentum: 4

  Minimum eigenvalue in the overlap matrix is 1.7465879439E-04.
  Using Symmetric Orthogonalization.

  SCF Guess: Orbitals guess was supplied from a previous computation.

  ==> Iterations <==

                           Total Energy        Delta E     RMS |[F,P]|

   @DF-RKS iter   0:  -689.71120987164124   -6.89711e+02   5.71298e-03 
   @DF-RKS iter   1:  -689.74187287769405   -3.06630e-02   1.17408e-03 
   @DF-RKS iter   2:  -689.74216726509189   -2.94387e-04   1.00938e-03 DIIS
   @DF-RKS iter   3:  -689.74286573634447   -6.98471e-04   2.89427e-04 DIIS
   @DF-RKS iter   4:  -689.74290481855769   -3.90822e-05   7.96411e-05 DIIS
   @DF-RKS iter   5:  -689.74290798200389   -3.16345e-06   3.07066e-05 DIIS
   @DF-RKS iter   6:  -689.74290873051109   -7.48507e-07   1.02416e-05 DIIS
   @DF-RKS iter   7:  -689.74290881087575   -8.03647e-08   1.02822e-06 DIIS
   @DF-RKS iter   8:  -689.74290881288846   -2.01271e-09   3.77524e-07 DIIS
   @DF-RKS iter   9:  -689.74290881312027   -2.31807e-10   1.17990e-07 DIIS
   @DF-RKS iter  10:  -689.74290881314107   -2.08047e-11   2.21923e-08 DIIS
   @DF-RKS iter  11:  -689.74290881314209   -1.02318e-12   8.77311e-09 DIIS

  ==> Post-Iterations <==

    Orbital Energies [Eh]
    ---------------------

    Doubly Occupied:                                                      

       1A   -102.687776     2A    -19.687449     3A    -19.597225  
       4A    -10.711170     5A    -10.616331     6A     -9.834478  
       7A     -7.559352     8A     -7.552891     9A     -7.552289  
      10A     -1.236884    11A     -1.124067    12A     -0.999333  
      13A     -0.822160    14A     -0.725875    15A     -0.642970  
      16A     -0.600195    17A     -0.576683    18A     -0.538311  
      19A     -0.523508    20A     -0.469439    21A     -0.465386  
      22A     -0.397482    23A     -0.390395    24A     -0.356931  
      25A     -0.349867  

    Virtual:                                                              

      26A     -0.009888    27A      0.012197    28A      0.021842  
      29A      0.024639    30A      0.042457    31A      0.045139  
      32A      0.051440    33A      0.068519    34A      0.075496  
      35A      0.087719    36A      0.098202    37A      0.110499  
      38A      0.116210    39A      0.122250    40A      0.130320  
      41A      0.132338    42A      0.146079    43A      0.164568  
      44A      0.182474    45A      0.192794    46A      0.216317  
      47A      0.219195    48A      0.224722    49A      0.235886  
      50A      0.253827    51A      0.269504    52A      0.282690  
      53A      0.310658    54A      0.312789    55A      0.321219  
      56A      0.329389    57A      0.332711    58A      0.398020  
      59A      0.413741    60A      0.454292    61A      0.465618  
      62A      0.482246    63A      0.493770    64A      0.511179  
      65A      0.542177    66A      0.550473    67A      0.590611  
      68A      0.603647    69A      0.651593    70A      0.668084  
      71A      0.677376    72A      0.690920    73A      0.718854  
      74A      0.849882    75A      0.903958    76A      0.935530  
      77A      0.950112    78A      0.968706    79A      0.984523  
      80A      1.026337    81A      1.057309    82A      1.077072  
      83A      1.159721    84A      1.183961    85A      1.206163  
      86A      1.221334    87A      1.254329    88A      1.266369  
      89A      1.278837    90A      1.366998    91A      1.424669  
      92A      1.462558    93A      1.484414    94A      1.550769  
      95A      1.570940    96A      1.601077    97A      1.617382  
      98A      1.680065    99A      1.708142   100A      1.723592  
     101A      1.760741   102A      1.803398   103A      1.827617  
     104A      1.911002   105A      1.951891   106A      2.008195  
     107A      2.064570   108A      2.123317   109A      2.149428  
     110A      2.222473   111A      2.313316   112A      2.380088  
     113A      2.437267   114A      2.465465   115A      2.472003  
     116A      2.519026   117A      2.534198   118A      2.574209  
     119A      2.605022   120A      2.710054   121A      2.727580  
     122A      2.809274   123A      2.914316   124A      2.924385  
     125A      2.994565   126A      3.104301   127A      3.159330  
     128A      3.169223   129A      3.220015   130A      3.384041  
     131A      3.531823   132A      3.584283   133A      3.727751  
     134A      3.793066   135A      3.830363   136A      3.917641  
     137A      4.041751   138A      4.118952   139A      5.188551  
     140A      5.218914   141A      5.287873   142A      5.305893  
     143A      5.609708   144A      5.711730   145A      9.982729  
     146A     23.745592   147A     23.961115   148A     25.993431  
     149A     26.029650   150A     26.581920   151A     49.976714  
     152A     50.098711   153A    216.081994  

    Final Occupation by Irrep:
              A 
    DOCC [    25 ]

  Energy converged.

  @DF-RKS Final Energy:  -689.74290881314209

   => Energetics <=

    Nuclear Repulsion Energy =            242.8468757161267035
    One-Electron Energy =               -1430.4702214021001510
    Two-Electron Energy =                 525.6422169977109888
    DFT Exchange-Correlation Energy =     -27.7617801248796638
    Empirical Dispersion Energy =           0.0000000000000000
    VV10 Nonlocal Energy =                  0.0000000000000000
    Total Energy =                       -689.7429088131420940



Properties will be evaluated at   0.000000,   0.000000,   0.000000 [a0]

Properties computed using the SCF density matrix

  Nuclear Dipole Moment: [e a0]
     X:     5.6221      Y:     4.9074      Z:    -6.4345

  Electronic Dipole Moment: [e a0]
     X:    -4.1519      Y:    -4.3310      Z:     6.2269

  Dipole Moment: [e a0]
     X:     1.4702      Y:     0.5764      Z:    -0.2076     Total:     1.5927

  Dipole Moment: [D]
     X:     3.7368      Y:     1.4651      Z:    -0.5277     Total:     4.0483


*** tstop() called on localhost.localdomain at Thu Jan 17 12:25:25 2019
Module time:
	user time   =     129.39 seconds =       2.16 minutes
	system time =       2.83 seconds =       0.05 minutes
	total time  =          9 seconds =       0.15 minutes
Total time:
	user time   =     613.09 seconds =      10.22 minutes
	system time =      21.36 seconds =       0.36 minutes
	total time  =         48 seconds =       0.80 minutes

*** tstart() called on localhost.localdomain
*** at Thu Jan 17 12:25:25 2019


         ------------------------------------------------------------
                                   SCF GRAD                          
                          Rob Parrish, Justin Turney,                
                       Andy Simmonett, and Alex Sokolov              
         ------------------------------------------------------------

  ==> Geometry <==

    Molecular point group: c1
    Full point group: C1

    Geometry (in Angstrom), charge = 0, multiplicity = 1:

       Center              X                  Y                   Z               Mass       
    ------------   -----------------  -----------------  -----------------  -----------------
         C           -0.042425854820    -0.490746570852    -0.252209958688    12.000000000000
         O           -1.074217297976    -0.401697123627    -1.063960485240    15.994914619560
         O            0.316263478991     1.122366416569    -0.406935643234    15.994914619560
         H           -0.590480398391     0.809757047075    -1.058152215417     1.007825032070
         H            1.445942272261     2.497003686175    -1.404026706007     1.007825032070
         C            1.503017528777     1.445798834515    -1.125145411041    12.000000000000
         H            1.586790980277     0.824151537089    -2.022325373611     1.007825032070
         H            2.362491179959     1.288491391710    -0.473232662312     1.007825032070
         CL          -0.318517530796    -0.786017038107     1.306287120276    34.968852682000
         H            0.885230873552    -0.955887779364    -0.622834336700     1.007825032070

  Nuclear repulsion =  242.846875716126704

  ==> Basis Set <==

  Basis Set: 6-311++G(D,P)
    Blend: 6-311++G(D,P)
    Number of shells: 79
    Number of basis function: 153
    Number of Cartesian functions: 158
    Spherical Harmonics?: true
    Max angular momentum: 2

  ==> DFJKGrad: Density-Fitted SCF Gradients <==

    Gradient:                    1
    J tasked:                  Yes
    K tasked:                  Yes
    wK tasked:                  No
    OpenMP threads:             16
    Integrals threads:          16
    Memory (MB):               375
    Schwarz Cutoff:          0E+00
    Fitting Condition:       1E-12

   => Auxiliary Basis Set <=

  Basis Set: (6-311++G(D,P) AUX)
    Blend: AUG-CC-PVTZ-JKFIT
    Number of shells: 232
    Number of basis function: 792
    Number of Cartesian functions: 979
    Spherical Harmonics?: true
    Max angular momentum: 4

  ==> DFT Potential <==

   => Composite Functional: M06-2X <= 

    Hybrid M06-2X Meta-GGA XC Functional

    Y. Zhao and D. G. Truhlar,  Theor. Chem. Acc., 120, 215, 2008


    Deriv               =              1
    GGA                 =           TRUE
    Meta                =           TRUE

    Exchange Hybrid     =           TRUE
    MP2 Hybrid          =          FALSE

   => Exchange Functionals <=

    1.0000   XC_HYB_MGGA_X_M06_2X

   => Exact (HF) Exchange <=

    0.5400               HF 

   => Correlation Functionals <=

    1.0000   XC_MGGA_C_M06_2X

   => Molecular Quadrature <=

    Radial Scheme       =       TREUTLER
    Pruning Scheme      =           FLAT
    Nuclear Scheme      =       TREUTLER

    BS radius alpha     =              1
    Pruning alpha       =              1
    Radial Points       =             75
    Spherical Points    =            302
    Total Points        =         226362
    Total Blocks        =           1762
    Max Points          =            256
    Max Functions       =            150


  -Total Gradient:
     Atom            X                  Y                   Z
    ------   -----------------  -----------------  -----------------
       1       -0.005391961932    -0.017838744088     0.091637015475
       2       -0.013597986104    -0.000635172510    -0.005433050619
       3       -0.001234978928    -0.000509336871     0.001664222357
       4        0.006359602482    -0.000476131055     0.001451468044
       5       -0.000417369159     0.000290510278     0.000335441353
       6       -0.000699536514     0.000734574722    -0.001130465957
       7       -0.000613875830    -0.000573447479     0.000079895738
       8       -0.000183547199    -0.000019438761     0.000512871220
       9        0.012887337998     0.018823880253    -0.086836304928
      10        0.002904554580     0.000372348305    -0.002159710800


*** tstop() called on localhost.localdomain at Thu Jan 17 12:25:29 2019
Module time:
	user time   =      49.29 seconds =       0.82 minutes
	system time =       2.04 seconds =       0.03 minutes
	total time  =          4 seconds =       0.07 minutes
Total time:
	user time   =     662.42 seconds =      11.04 minutes
	system time =      23.40 seconds =       0.39 minutes
	total time  =         52 seconds =       0.87 minutes

			-----------------------------------------
			 OPTKING 2.0: for geometry optimizations 
			  - R.A. King,  Bethel University        
			-----------------------------------------

	Previous internal coordinate definitions found.
	---Fragment 1 Geometry and Gradient---
	 C          -0.0801732466       -0.9273766196       -0.4766077499
	 O          -2.0299765004       -0.7590975520       -2.0105939333
	 O           0.5976513611        2.1209651481       -0.7689969194
	 H          -1.1158462398        1.5302190531       -1.9996178940
	 H           2.7324348985        4.7186531197       -2.6532259576
	 C           2.8402915023        2.7321638405       -2.1262166865
	 H           2.9986003829        1.5574206971       -3.8216411077
	 H           4.4644613215        2.4348958549       -0.8942801289
	 CL         -0.6019109017       -1.4853569378        2.4685249082
	 H           1.6728439154       -1.8063661168       -1.1769863225
	            -0.0053919619       -0.0178387441        0.0916370155
	            -0.0135979861       -0.0006351725       -0.0054330506
	            -0.0012349789       -0.0005093369        0.0016642224
	             0.0063596025       -0.0004761311        0.0014514680
	            -0.0004173692        0.0002905103        0.0003354414
	            -0.0006995365        0.0007345747       -0.0011304660
	            -0.0006138758       -0.0005734475        0.0000798957
	            -0.0001835472       -0.0000194388        0.0005128712
	             0.0128873380        0.0188238803       -0.0868363049
	             0.0029045546        0.0003723483       -0.0021597108

	---Fragment 1 Intrafragment Coordinates---
	 - Coordinate -           - BOHR/RAD -       - ANG/DEG -
	 H(2,4)           =         2.465101	       1.304476
	 R(1,2)           =         2.486597	       1.315850
	 R(1,3)           =         3.136451	       1.659738
	 R(1,9)           =         3.042591	       1.610070
	 R(1,10)          =         2.082360	       1.101937
	 R(3,4)           =         2.190772	       1.159307
	 R(3,6)           =         2.691662	       1.424366
	 R(5,6)           =         2.058036	       1.089066
	 R(6,7)           =         2.068707	       1.094712
	 R(6,8)           =         2.060088	       1.090152
	 B(1,3,4)         =         1.182360	      67.744258
	 B(1,3,6)         =         2.035053	     116.599956
	 B(2,1,3)         =         1.616989	      92.646637
	 B(2,1,9)         =         2.065865	     118.365352
	 B(2,1,10)        =         2.072805	     118.762981
	 B(3,1,9)         =         1.881295	     107.790259
	 B(3,1,10)        =         1.769060	     101.359693
	 B(3,6,5)         =         1.880349	     107.736062
	 B(3,6,7)         =         1.926298	     110.368743
	 B(3,6,8)         =         1.899251	     108.819070
	 B(4,3,6)         =         2.014907	     115.445680
	 B(5,6,7)         =         1.920123	     110.014947
	 B(5,6,8)         =         1.911057	     109.495503
	 B(7,6,8)         =         1.926044	     110.354185
	 B(9,1,10)        =         1.974157	     113.110883
	 D(1,3,6,5)       =         2.844174	     162.959154
	 D(1,3,6,7)       =         0.747399	      42.822806
	 D(1,3,6,8)       =        -1.368501	     -78.409316
	 D(2,1,3,4)       =        -0.030239	      -1.732585
	 D(2,1,3,6)       =        -1.920722	    -110.049250
	 D(4,3,1,9)       =        -2.141247	    -122.684388
	 D(4,3,1,10)      =         2.064864	     118.307989
	 D(4,3,6,5)       =         1.506288	      86.303926
	 D(4,3,6,7)       =        -0.590487	     -33.832422
	 D(4,3,6,8)       =        -2.706387	    -155.064543
	 D(6,3,1,9)       =         2.251456	     128.998948
	 D(6,3,1,10)      =         0.174381	       9.991324

	Current energy   :      -689.7429088131

	Energy change for the previous step:
		Projected    :        -0.0155570284
		Actual       :        -0.0222927069

	Performing Bofill update.
	Previous computed or guess Hessian on step 1.
	Steps to be used in Hessian update: 2 1
	Taking PRFO optimization step.
	Maximizing along 1 lowest eigenvalue of Hessian.

 RFO min eigenvalues
 -0.009483 -0.000000 -0.000000 -0.000000 -0.000000 -0.000000 -0.000000  0.000000
  0.000000  0.000000  0.000000  0.000000  0.000000  0.000947  0.021434  0.054640
  0.071015  0.074418  0.083781  0.099863  0.119444  0.159112  0.159955  0.159995
  0.166197  0.183267  0.232009  0.245321  0.279581  0.289561  0.344048  0.344458
  0.349416  0.350672  0.409949  0.735509  0.994717

 RFO max eigenvalues
 -0.000000  0.000000
	|RFO target step|  :        0.1542305764
	RFO gradient       :       -0.0614828212
	RFO hessian        :        0.3900041155
	Projected Delta(E) :       -0.0047314558

	Back-transformation to cartesian coordinates...
	Could not converge backtransformation.
	Using first guess instead.

[...]
                       Andy Simmonett, and Alex Sokolov              
         ------------------------------------------------------------

  ==> Geometry <==

    Molecular point group: c1
    Full point group: C1

    Geometry (in Angstrom), charge = 0, multiplicity = 1:

       Center              X                  Y                   Z               Mass       
    ------------   -----------------  -----------------  -----------------  -----------------
         C           -0.064334101430    -0.457791213697    -0.356670048778    12.000000000000
         O           -1.107129262530    -0.418350932437    -1.096448944097    15.994914619560
         O            0.286593796915     1.078860683052    -0.494633598756    15.994914619560
         H           -0.658542998030     0.858251152049    -1.109211539717     1.007825032070
         H            1.484332970116     2.472826155599    -1.382887064918     1.007825032070
         C            1.508237731565     1.407488678664    -1.165477269037    12.000000000000
         H            1.602975870829     0.832988450692    -2.090359030448     1.007825032070
         H            2.334711078196     1.187474028879    -0.491665036383     1.007825032070
         CL          -0.281533372877    -0.753183103608     1.415153812771    34.968852682000
         H            0.835163730647    -1.008739988353    -0.652375260349     1.007825032070

  Nuclear repulsion =  237.884368684942672

  ==> Basis Set <==

  Basis Set: 6-311++G(D,P)
    Blend: 6-311++G(D,P)
    Number of shells: 79
    Number of basis function: 153
    Number of Cartesian functions: 158
    Spherical Harmonics?: true
    Max angular momentum: 2

  ==> DFJKGrad: Density-Fitted SCF Gradients <==

    Gradient:                    1
    J tasked:                  Yes
    K tasked:                  Yes
    wK tasked:                  No
    OpenMP threads:             16
    Integrals threads:          16
    Memory (MB):               375
    Schwarz Cutoff:          0E+00
    Fitting Condition:       1E-12

   => Auxiliary Basis Set <=

  Basis Set: (6-311++G(D,P) AUX)
    Blend: AUG-CC-PVTZ-JKFIT
    Number of shells: 232
    Number of basis function: 792
    Number of Cartesian functions: 979
    Spherical Harmonics?: true
    Max angular momentum: 4

  ==> DFT Potential <==

   => Composite Functional: M06-2X <= 

    Hybrid M06-2X Meta-GGA XC Functional

    Y. Zhao and D. G. Truhlar,  Theor. Chem. Acc., 120, 215, 2008


    Deriv               =              1
    GGA                 =           TRUE
    Meta                =           TRUE

    Exchange Hybrid     =           TRUE
    MP2 Hybrid          =          FALSE

   => Exchange Functionals <=

    1.0000   XC_HYB_MGGA_X_M06_2X

   => Exact (HF) Exchange <=

    0.5400               HF 

   => Correlation Functionals <=

    1.0000   XC_MGGA_C_M06_2X

   => Molecular Quadrature <=

    Radial Scheme       =       TREUTLER
    Pruning Scheme      =           FLAT
    Nuclear Scheme      =       TREUTLER

    BS radius alpha     =              1
    Pruning alpha       =              1
    Radial Points       =             75
    Spherical Points    =            302
    Total Points        =         226364
    Total Blocks        =           1750
    Max Points          =            256
    Max Functions       =            150


  -Total Gradient:
     Atom            X                  Y                   Z
    ------   -----------------  -----------------  -----------------
       1       -0.000085623020    -0.000094963895     0.000079227705
       2        0.000055979538    -0.000026652644     0.000084220656
       3        0.000056629717     0.000067882454     0.000012144001
       4       -0.000030246647    -0.000067251289     0.000074498300
       5       -0.000017137514    -0.000023370682    -0.000007633726
       6       -0.000056645179    -0.000038374441     0.000012451610
       7       -0.000013186923    -0.000024672250     0.000011132407
       8       -0.000002491846    -0.000002990844     0.000005488439
       9        0.000027460057     0.000029502764    -0.000062226413
      10        0.000008524549    -0.000017767526     0.000101276963


*** tstop() called on localhost.localdomain at Thu Jan 17 12:32:13 2019
Module time:
	user time   =      47.74 seconds =       0.80 minutes
	system time =       2.54 seconds =       0.04 minutes
	total time  =          5 seconds =       0.08 minutes
Total time:
	user time   =    5855.47 seconds =      97.59 minutes
	system time =     176.84 seconds =       2.95 minutes
	total time  =        456 seconds =       7.60 minutes

			-----------------------------------------
			 OPTKING 2.0: for geometry optimizations 
			  - R.A. King,  Bethel University        
			-----------------------------------------

	Previous internal coordinate definitions found.
	---Fragment 1 Geometry and Gradient---
	 C          -0.1215738327       -0.8651000199       -0.6740087120
	 O          -2.0921710999       -0.7905686897       -2.0719882230
	 O           0.5415837876        2.0387512265       -0.9347220378
	 H          -1.2444659130        1.6218596306       -2.0961060335
	 H           2.8049828035        4.6729642083       -2.6132778254
	 C           2.8501562559        2.6597681378       -2.2024328526
	 H           3.0291853935        1.5741200437       -3.9502060870
	 H           4.4119645372        2.2440007045       -0.9291122679
	 CL         -0.5320209720       -1.4233097937        2.6742531420
	 H           1.5782307270       -1.9062423173       -1.2328105779
	            -0.0000856230       -0.0000949639        0.0000792277
	             0.0000559795       -0.0000266526        0.0000842207
	             0.0000566297        0.0000678825        0.0000121440
	            -0.0000302466       -0.0000672513        0.0000744983
	            -0.0000171375       -0.0000233707       -0.0000076337
	            -0.0000566452       -0.0000383744        0.0000124516
	            -0.0000131869       -0.0000246722        0.0000111324
	            -0.0000024918       -0.0000029908        0.0000054884
	             0.0000274601        0.0000295028       -0.0000622264
	             0.0000085245       -0.0000177675        0.0001012770

	---Fragment 1 Intrafragment Coordinates---
	 - Coordinate -           - BOHR/RAD -       - ANG/DEG -
	 H(2,4)           =         2.557146	       1.353183
	 R(1,2)           =         2.417262	       1.279160
	 R(1,3)           =         2.990000	       1.582240
	 R(1,9)           =         3.419199	       1.809362
	 R(1,10)          =         2.070162	       1.095483
	 R(3,4)           =         2.170849	       1.148764
	 R(3,6)           =         2.705967	       1.431936
	 R(5,6)           =         2.055187	       1.087558
	 R(6,7)           =         2.065283	       1.092901
	 R(6,8)           =         2.057536	       1.088801
	 B(1,3,4)         =         1.242599	      71.195704
	 B(1,3,6)         =         2.040875	     116.933507
	 B(2,1,3)         =         1.671403	      95.764311
	 B(2,1,9)         =         2.064064	     118.262162
	 B(2,1,10)        =         2.127948	     121.922431
	 B(3,1,9)         =         1.844775	     105.697832
	 B(3,1,10)        =         1.857496	     106.426669
	 B(3,6,5)         =         1.875186	     107.440267
	 B(3,6,7)         =         1.928131	     110.473754
	 B(3,6,8)         =         1.887347	     108.136999
	 B(4,3,6)         =         2.089037	     119.693000
	 B(5,6,7)         =         1.925868	     110.344089
	 B(5,6,8)         =         1.915949	     109.775766
	 B(7,6,8)         =         1.930177	     110.591007
	 B(9,1,10)        =         1.855414	     106.307393
	 D(1,3,6,5)       =         2.911559	     166.820053
	 D(1,3,6,7)       =         0.809905	      46.404157
	 D(1,3,6,8)       =        -1.304626	     -74.749590
	 D(2,1,3,4)       =        -0.005961	      -0.341518
	 D(2,1,3,6)       =        -2.003541	    -114.794443
	 D(4,3,1,9)       =        -2.126798	    -121.856550
	 D(4,3,1,10)      =         2.188280	     125.379236
	 D(4,3,6,5)       =         1.467594	      84.086960
	 D(4,3,6,7)       =        -0.634060	     -36.328936
	 D(4,3,6,8)       =        -2.748591	    -157.482684
	 D(6,3,1,9)       =         2.158807	     123.690525
	 D(6,3,1,10)      =         0.190700	      10.926311

	Current energy   :      -689.7575695590

	Energy change for the previous step:
		Projected    :        -0.0000004379
		Actual       :        -0.0000002935

	Performing Bofill update.
	Previous computed or guess Hessian on step 1.
	Steps to be used in Hessian update: 32 31
	Taking PRFO optimization step.
	Maximizing along 1 lowest eigenvalue of Hessian.

 RFO min eigenvalues
 -0.000000 -0.000000 -0.000000 -0.000000 -0.000000 -0.000000 -0.000000 -0.000000
 -0.000000  0.000000  0.000000  0.000000  0.000000  0.000000  0.002744  0.005405
  0.036012  0.071257  0.074770  0.084035  0.111424  0.146165  0.158695  0.160004
  0.162951  0.172355  0.178985  0.227186  0.269940  0.335164  0.342563  0.343841
  0.349216  0.350601  0.409520  0.480117  0.752704

 RFO max eigenvalues
 -0.046804  0.000000
	|RFO target step|  :        0.0082698583
	RFO gradient       :       -0.0000516061
	RFO hessian        :        0.0062398333
	Projected Delta(E) :       -0.0000002134

	Back-transformation to cartesian coordinates...
	Could not converge backtransformation.
	Using first guess instead.

	--- Internal Coordinate Step in ANG or DEG, aJ/ANG or AJ/DEG ---
	 ---------------------------------------------------------------------------
	   Coordinate                Previous        Force       Change         New 
	   ----------                --------       ------       ------       ------
	    1 H(2,4)          =      1.353183     0.000096     0.000354     1.353537
	    2 R(1,2)          =      1.279160     0.000485    -0.000000     1.279159
	    3 R(1,3)          =      1.582240    -0.000496    -0.000292     1.581948
	    4 R(1,9)          =      1.809362     0.001007     0.000170     1.809532
	    5 R(1,10)         =      1.095483     0.000078     0.000024     1.095506
	    6 R(3,4)          =      1.148764     0.000035    -0.000171     1.148593
	    7 R(3,6)          =      1.431936     0.000159    -0.000008     1.431928
	    8 R(5,6)          =      1.087558    -0.000007    -0.000008     1.087550
	    9 R(6,7)          =      1.092901    -0.000011    -0.000008     1.092892
	   10 R(6,8)          =      1.088801    -0.000024     0.000000     1.088801
	   11 B(1,3,4)        =     71.195704     0.000002     0.027175    71.222879
	   12 B(1,3,6)        =    116.933507    -0.000002     0.036794   116.970301
	   13 B(2,1,3)        =     95.764311     0.000000     0.003169    95.767481
	   14 B(2,1,9)        =    118.262162    -0.000000     0.009756   118.271918
	   15 B(2,1,10)       =    121.922431    -0.000001    -0.011641   121.910790
	   16 B(3,1,9)        =    105.697832     0.000000     0.010908   105.708739
	   17 B(3,1,10)       =    106.426669    -0.000001    -0.002907   106.423762
	   18 B(3,6,5)        =    107.440267    -0.000000     0.001465   107.441731
	   19 B(3,6,7)        =    110.473754    -0.000001     0.002288   110.476041
	   20 B(3,6,8)        =    108.136999    -0.000000    -0.011322   108.125677
	   21 B(4,3,6)        =    119.693000    -0.000001     0.107958   119.800958
	   22 B(5,6,7)        =    110.344089     0.000001     0.004751   110.348839
	   23 B(5,6,8)        =    109.775766     0.000001     0.003367   109.779133
	   24 B(7,6,8)        =    110.591007     0.000000    -0.000771   110.590236
	   25 B(9,1,10)       =    106.307393     0.000001    -0.005428   106.301966
	   26 D(1,3,6,5)      =    166.820053     0.000000     0.085938   166.905991
	   27 D(1,3,6,7)      =     46.404157    -0.000000     0.077919    46.482076
	   28 D(1,3,6,8)      =    -74.749590     0.000000     0.084655   -74.664936
	   29 D(2,1,3,4)      =     -0.341518    -0.000000    -0.090755    -0.432273
	   30 D(2,1,3,6)      =   -114.794443    -0.000000    -0.218578  -115.013020
	   31 D(4,3,1,9)      =   -121.856550    -0.000000    -0.105694  -121.962244
	   32 D(4,3,1,10)     =    125.379236    -0.000001    -0.103104   125.276132
	   33 D(4,3,6,5)      =     84.086960    -0.000000    -0.013914    84.073045
	   34 D(4,3,6,7)      =    -36.328936    -0.000000    -0.021933   -36.350870
	   35 D(4,3,6,8)      =   -157.482684    -0.000000    -0.015198  -157.497881
	   36 D(6,3,1,9)      =    123.690525    -0.000000    -0.233517   123.457009
	   37 D(6,3,1,10)     =     10.926311    -0.000001    -0.230927    10.695385
	 ---------------------------------------------------------------------------
	Successfully symmetrized geometry.

  ==> Convergence Check <==

  Measures of convergence in internal coordinates in au.
  Criteria marked as inactive (o), active & met (*), and active & unmet ( ).
  ---------------------------------------------------------------------------------------------
   Step     Total Energy     Delta E     MAX Force     RMS Force      MAX Disp      RMS Disp   
  ---------------------------------------------------------------------------------------------
    Convergence Criteria    1.00e-06 *    3.00e-04 *             o    1.20e-03 *             o
  ---------------------------------------------------------------------------------------------
     33    -689.75756956   -2.93e-07 *    1.22e-04 *    2.79e-05 o    4.08e-03      1.36e-03 o  ~
  ---------------------------------------------------------------------------------------------


  **** Optimization is complete! (in 33 steps) ****

  ==> Optimization Summary <==

  Measures of convergence in internal coordinates in au.
  --------------------------------------------------------------------------------------------------------------- ~
   Step         Total Energy             Delta E       MAX Force       RMS Force        MAX Disp        RMS Disp  ~
  --------------------------------------------------------------------------------------------------------------- ~
      1    -689.598213518057   -689.598213518057      0.55955314      0.09359174      0.32355728      0.06547966  ~
      2    -689.720616106285     -0.122402588227      0.18164247      0.02996472      0.16321395      0.04638692  ~
      3    -689.742908813142     -0.022292706857      0.08971807      0.01504673      0.09615501      0.02415009  ~
      4    -689.750246301597     -0.007337488455      0.05310914      0.00891617      0.11123184      0.02861361  ~
      5    -689.754825608542     -0.004579306945      0.02280264      0.00465872      0.13050002      0.04972213  ~
      6    -689.758350344888     -0.003524736346      0.02076472      0.00680273      0.19977247      0.08196674  ~
      7    -689.755426926985      0.002923417904      0.01550791      0.00588201      0.15359193      0.08293821  ~
      8    -689.763405478551     -0.007978551566      0.03175577      0.00819829      0.27382576      0.08180328  ~
      9    -689.755832808859      0.007572669692      0.01439703      0.00444378      0.13600591      0.05680818  ~
     10    -689.755647074701      0.000185734158      0.01492145      0.00374260      0.18253068      0.06903970  ~
     11    -689.756681881824     -0.001034807123      0.01097806      0.00290134      0.05001068      0.01949009  ~
     12    -689.757009442575     -0.000327560751      0.00477293      0.00116951      0.03207716      0.01238612  ~
     13    -689.757236497328     -0.000227054753      0.00361602      0.00092913      0.06413278      0.02037001  ~
     14    -689.757357545642     -0.000121048314      0.00140311      0.00037667      0.01415544      0.00485226  ~
     15    -689.757385695584     -0.000028149942      0.00067571      0.00026245      0.07709014      0.03084161  ~
     16    -689.757477477213     -0.000091781629      0.00272782      0.00086378      0.02263579      0.01073232  ~
     17    -689.757497331710     -0.000019854496      0.00142295      0.00033053      0.02106128      0.00785960  ~
     18    -689.757512818369     -0.000015486659      0.00137516      0.00030727      0.02720577      0.01085239  ~
     19    -689.757522706657     -0.000009888288      0.00065823      0.00015614      0.00629554      0.00294137  ~
     20    -689.757525568779     -0.000002862122      0.00037149      0.00010690      0.00366981      0.00162244  ~
     21    -689.757528106006     -0.000002537226      0.00028799      0.00009123      0.00929669      0.00404454  ~
     22    -689.757532417969     -0.000004311963      0.00025553      0.00008984      0.00949972      0.00347698  ~
     23    -689.757536668535     -0.000004250567      0.00029536      0.00009133      0.00871480      0.00296002  ~
     24    -689.757540706977     -0.000004038441      0.00027208      0.00008452      0.01217783      0.00401790  ~
     25    -689.757545681884     -0.000004974907      0.00020358      0.00007063      0.00788134      0.00257236  ~
     26    -689.757549217929     -0.000003536045      0.00020984      0.00006186      0.00595380      0.00211980  ~
     27    -689.757552366623     -0.000003148694      0.00024291      0.00005986      0.00912720      0.00365937  ~
     28    -689.757557231517     -0.000004864894      0.00027435      0.00006036      0.00887234      0.00368263  ~
     29    -689.757561626389     -0.000004394872      0.00027385      0.00005784      0.00818545      0.00315776  ~
     30    -689.757564873058     -0.000003246669      0.00025077      0.00005282      0.00978006      0.00385867  ~
     31    -689.757567822506     -0.000002949448      0.00021127      0.00004621      0.00789267      0.00308479  ~
     32    -689.757569265557     -0.000001443050      0.00016589      0.00003747      0.00476659      0.00196152  ~
     33    -689.757569559029     -0.000000293472      0.00012225      0.00002787      0.00407564      0.00136003  ~
  --------------------------------------------------------------------------------------------------------------- ~

	Writing optimization data to binary file.
	Final energy is   -689.7575695590289
	Final (previous) structure:
	Cartesian Geometry (in Angstrom)
	    C    -0.0643341014  -0.4577912137  -0.3566700488
	    O    -1.1071292625  -0.4183509324  -1.0964489441
	    O     0.2865937969   1.0788606831  -0.4946335988
	    H    -0.6585429980   0.8582511520  -1.1092115397
	    H     1.4843329701   2.4728261556  -1.3828870649
	    C     1.5082377316   1.4074886787  -1.1654772690
	    H     1.6029758708   0.8329884507  -2.0903590304
	    H     2.3347110782   1.1874740289  -0.4916650364
	   CL    -0.2815333729  -0.7531831036   1.4151538128
	    H     0.8351637306  -1.0087399884  -0.6523752603
	Saving final (previous) structure.
	Removing binary optimization data file.
			--------------------------
			 OPTKING Finished Execution 
			--------------------------

    Final optimized geometry and variables:
    Molecular point group: c1
    Full point group: C1

    Geometry (in Angstrom), charge = 0, multiplicity = 1:

    C           -0.064334101430    -0.457791213697    -0.356670048778
    O           -1.107129262530    -0.418350932437    -1.096448944097
    O            0.286593796915     1.078860683052    -0.494633598756
    H           -0.658542998030     0.858251152049    -1.109211539717
    H            1.484332970116     2.472826155599    -1.382887064918
    C            1.508237731565     1.407488678664    -1.165477269037
    H            1.602975870829     0.832988450692    -2.090359030448
    H            2.334711078196     1.187474028879    -0.491665036383
    CL          -0.281533372877    -0.753183103608     1.415153812771
    H            0.835163730647    -1.008739988353    -0.652375260349

	Removing binary optimization data file.
	Cleaning optimization helper files.

    Psi4 stopped on: Thursday, 17 January 2019 12:32PM
    Psi4 wall time for execution: 0:07:35.97

*** Psi4 exiting successfully. Buy a developer a beer!
