[Molden Format]

[FREQ]
        -597.2619315519
         149.0368155847
         299.6859905370
         346.7519759062
         401.5519498399
         484.3021653682
         510.7926475108
         721.3510489239
         805.1782434097
         909.5932977444
        1030.9321647503
        1060.6597151326
        1081.1041777928
        1145.1952296595
        1203.9555580805
        1282.3946377758
        1291.2574708337
        1342.4533605670
        1398.8856168670
        1457.6259987804
        1490.4881216553
        1570.7910681979
        1613.3670461239
        1656.2465456411
        1699.7278193238
        2106.5174455391
        3266.1395650784
        3282.2338034185
        3300.5373317703
        3333.1862907585
        3351.7471001336
        3366.0212659981
        3384.5737112019

[FR-COORD]
C         -1.0624436314        2.1223277726       -0.2037257110
H         -0.9576514327        2.8581040849       -2.1044257606
H         -1.5252573990        3.6242051747        1.0962328979
H          0.3482114945       -2.5662645626       -0.3361157967
C          2.5657818072       -2.6470306819       -0.1795196619
H          3.3040461403       -4.0365771565       -1.4764292593
H          2.8296168566       -3.1613733421        1.7791036167
C          3.0756871778       -0.0735242143       -0.7761750064
H          3.6994260503        0.3902089374       -2.6581569436
C          2.1527899606        1.8958098236        0.7456256055
H          2.8789734232        3.7557981120        0.3402390401
H          2.0123047363        1.4944880268        2.7365678068
S         -2.9234880722       -0.5613661283        0.1749463323

[FR-NORM-COORD]
vibration 1
          -0.2374147295       -0.0575849490       -0.0735799373
           0.0148127189       -0.0445019475       -0.0421333756
           0.2040245944       -0.0452427149        0.0581341079
           0.4151663375       -0.5869747433       -0.0676307375
           0.0081197428       -0.0704863850        0.0029068954
           0.3091964726        0.0652188986        0.0168989040
           0.3774470878       -0.0069163281       -0.0239628732
           0.0128275460        0.0915981389        0.0166905870
           0.0597928464        0.0996083568        0.0351971346
           0.2725815151       -0.0298627154        0.0463513156
          -0.0337383371        0.0619914589       -0.0191931970
          -0.0446556150       -0.0146651229        0.0143840274
          -0.0621043145        0.0397597776        0.0037564403
vibration 2
          -0.0682229117        0.0547738724        0.2169123237
          -0.1817238424        0.3334095507        0.3220862769
           0.0156541995       -0.1561057582        0.4890525626
          -0.0271485395        0.0248563207        0.1092402468
          -0.0124831456        0.0061623828        0.1267338824
          -0.0558496417       -0.0969593221        0.2131047665
          -0.0093486490        0.1415720105        0.1607591154
          -0.0316737482       -0.0425815258       -0.0665781291
          -0.1857341792       -0.1658005148       -0.1480198652
           0.1015324178        0.0360234619       -0.1025851654
           0.0329786665        0.0263178026       -0.2647849368
           0.2885905062        0.1330008309       -0.0696384779
           0.0079353425       -0.0279840958       -0.0910778343
vibration 3
           0.0920480841        0.0262082523        0.0638006591
           0.0596607123        0.0582066216        0.0694959317
           0.0067194690        0.0378068043        0.0290689138
           0.3053766836       -0.2324369542        0.2324245088
           0.3194920542       -0.0727745297        0.0486353325
           0.3449879166       -0.0359441215        0.0249054712
           0.5815900510        0.0475739802        0.0459790323
          -0.0466780884       -0.0325919768       -0.0824583645
          -0.2241918165        0.0046369195       -0.1323638111
          -0.1747083442       -0.0923425678       -0.0201347106
          -0.0980660863       -0.1000821554        0.0658550837
          -0.0242916316       -0.1974634316       -0.0275816103
          -0.1013721481        0.0775358198       -0.0133962837
vibration 4
          -0.0975125909        0.0618967866        0.0439342529
          -0.2150362891        0.1373764632        0.0668003687
          -0.0403470194       -0.0001991858        0.1356804012
           0.0674708428        0.0255356553       -0.3805463921
           0.0496344416       -0.0395498184       -0.0451338140
           0.2715749280       -0.0616021799        0.1047840543
          -0.3624111722       -0.0513407883        0.0066589297
           0.1982339110       -0.0456480064        0.0510432821
           0.6082099053       -0.0727629779        0.1794388445
          -0.0809198509       -0.0176334617       -0.1132070465
          -0.0202868380       -0.0333971714       -0.0906319592
          -0.1462368371        0.0255788202       -0.1081118253
          -0.0311973360        0.0163350839        0.0264906165
vibration 5
          -0.2891323199        0.2472528858       -0.0771168975
          -0.2451650108        0.3079904726       -0.0491177128
          -0.1680548745        0.1683870319        0.0542504367
           0.0414246619       -0.2020777425        0.1691336274
           0.0172377292       -0.1579773735        0.0008926753
          -0.0126167744       -0.0340112284       -0.1526122741
           0.2559297662       -0.2605156911       -0.0572855523
          -0.1769163904       -0.0818574652        0.0481532623
          -0.2287702079       -0.0492388027        0.0393826063
          -0.1511827488       -0.0823730113        0.0159334542
          -0.0552912161       -0.1096211916        0.0721001921
          -0.3935588795       -0.0940744617       -0.0064566951
           0.2506041937        0.0367432777        0.0023680801
vibration 6
           0.0607249813       -0.0066530907        0.0300571907
           0.0363143160       -0.0188182878        0.0231762350
          -0.0219666333        0.0039435720       -0.0087518373
           0.0533909782       -0.1386628544       -0.1034466625
           0.0388919733       -0.1219675024       -0.0711777286
           0.1126209769        0.1280139039       -0.2996595990
           0.0534798668       -0.4196171261       -0.1514877444
          -0.0710069815       -0.0344505469        0.1547089125
          -0.1466121426       -0.0511859669        0.1236480313
          -0.0018008875        0.1662387390       -0.0280612399
           0.0196090205        0.0731599933       -0.4343800023
           0.1473887284        0.5472401434        0.0598005321
          -0.0180758844       -0.0050999337       -0.0071635703
vibration 7
          -0.0501990808        0.0182916235       -0.0023677054
          -0.0597180257        0.0034990564       -0.0067998675
          -0.0543688547        0.0148047121       -0.0005642834
          -0.0785833667        0.2449437487        0.5501258720
           0.0106171357        0.0093473700       -0.0020819606
          -0.5050777125        0.0144771457       -0.2996913774
           0.4308825139       -0.1921511872       -0.1078181667
           0.1138619498       -0.0167951376        0.0299250390
           0.1494508755       -0.0103346736        0.0425812911
           0.0139002442        0.0003670880       -0.0209455319
           0.0167890380        0.0031417742       -0.0065123638
          -0.0294996678        0.0228769202       -0.0171300862
          -0.0289946670       -0.0073996197       -0.0065605904
vibration 8
          -0.0883939965        0.1123449657       -0.0408627862
           0.0378657920       -0.0874663858       -0.1139357704
          -0.1752813500        0.2314878302       -0.2086421323
          -0.0231777848        0.4605848717       -0.2474430713
           0.1409164410        0.0190955498       -0.0072713702
          -0.0812818576       -0.0816123546       -0.0171385204
          -0.3568938834       -0.0927110301        0.0198210010
           0.0253722975       -0.0597217390        0.0041588732
          -0.4694497505       -0.0796816767       -0.1655549568
           0.0904376947       -0.0239593748        0.0749810552
           0.1475150617       -0.0610351282       -0.0052299468
           0.2690307617        0.0216150814        0.1006305993
          -0.0426377405       -0.0277344884        0.0084577548
vibration 9
           0.1013425619        0.2426676391       -0.0404740976
           0.0094729225        0.2677716634       -0.0390673010
           0.0009950214        0.2199637282       -0.0414416203
           0.0035209411       -0.2738842236        0.1300867681
          -0.0373735013       -0.0416009744       -0.0070202792
           0.1699550394        0.0031543460        0.0606123095
           0.1752284318        0.1205232916        0.0115567312
          -0.0635461604       -0.0036387133       -0.0311724837
           0.3738746860       -0.0016230260        0.1134136090
           0.0608382483        0.0802083869        0.0007033459
           0.5522877746       -0.0367681777        0.3067224772
          -0.1592832807       -0.1418168131       -0.0587437094
          -0.0584884447       -0.1091636475        0.0140323200
















































































































































































































































































































































