
    -----------------------------------------------------------------------
          Psi4: An Open-Source Ab Initio Electronic Structure Package
                               Psi4 1.2.1 release

                         Git: Rev {HEAD} 406f4de 


    R. M. Parrish, L. A. Burns, D. G. A. Smith, A. C. Simmonett,
    A. E. DePrince III, E. G. Hohenstein, U. Bozkaya, A. Yu. Sokolov,
    R. Di Remigio, R. M. Richard, J. F. Gonthier, A. M. James,
    H. R. McAlexander, A. Kumar, M. Saitow, X. Wang, B. P. Pritchard,
    P. Verma, H. F. Schaefer III, K. Patkowski, R. A. King, E. F. Valeev,
    F. A. Evangelista, J. M. Turney, T. D. Crawford, and C. D. Sherrill,
    J. Chem. Theory Comput. 13(7) pp 3185--3197 (2017).
    (doi: 10.1021/acs.jctc.7b00174)


                         Additional Contributions by
    P. Kraus, H. Kruse, M. H. Lechner, M. C. Schieber, and R. A. Shaw

    -----------------------------------------------------------------------


    Psi4 started on: Tuesday, 19 March 2019 01:06PM

    Process ID: 9202
    Host:       localhost.localdomain
    PSIDATADIR: /root/psi4conda/share/psi4
    Memory:     500.0 MiB
    Threads:    1
    
  ==> Input File <==

--------------------------------------------------------------------------
molecule{
0 1
 C    0.026460224061   -0.090206566796   -0.798622543229
 O   -1.092340847064   -0.535736320776   -1.484344471159
 F    1.059004261229   -0.021334854470    1.311280902965
 F   -1.105634967457    0.093161109452    1.277317178696
 H    1.055355731272    2.863644232603   -1.731413700453
 C    1.235005152951    1.799170060121   -1.597519469288
 H    1.298134887336    1.318008087902   -2.577857934380
 H    2.170499172748    1.655477828258   -1.049459230880
 O    0.138299548577    1.291877130275   -0.853324246647
 H   -1.818418801887    0.061102076472   -1.272230446828
 C   -0.041473064976   -0.458920691666    0.688310776801
 F   -0.111827640965   -1.778940784688    0.874850347370
 H    0.896598858514   -0.602145397791   -1.222786282201
}

set{
   basis 6-311++G(d,p)
   freeze_core True
}


set_num_threads(16)
optimize('m06-2x')
--------------------------------------------------------------------------
  Threads set to 16 by Python driver.
gradient() will perform analytic gradient computation.

*** tstart() called on localhost.localdomain
*** at Tue Mar 19 13:06:05 2019

   => Loading Basis Set <=

    Name: 6-311++G(D,P)
    Role: ORBITAL
    Keyword: BASIS
    atoms 1, 6, 11       entry C          line   119 file /root/psi4conda/share/psi4/basis/6-311ppg_d_p_.gbs 
    atoms 2, 9           entry O          line   161 file /root/psi4conda/share/psi4/basis/6-311ppg_d_p_.gbs 
    atoms 3-4, 12        entry F          line   182 file /root/psi4conda/share/psi4/basis/6-311ppg_d_p_.gbs 
    atoms 5, 7-8, 10, 13 entry H          line    42 file /root/psi4conda/share/psi4/basis/6-311ppg_d_p_.gbs 


         ---------------------------------------------------------
                                   SCF
            by Justin Turney, Rob Parrish, Andy Simmonett
                             and Daniel Smith
                              RKS Reference
                       16 Threads,    500 MiB Core
         ---------------------------------------------------------

  ==> Geometry <==

    Molecular point group: c1
    Full point group: C1

    Geometry (in Angstrom), charge = 0, multiplicity = 1:

       Center              X                  Y                   Z               Mass       
    ------------   -----------------  -----------------  -----------------  -----------------
         C            0.026460224061    -0.090206566796    -0.798622543229    12.000000000000
         O           -1.092340847064    -0.535736320776    -1.484344471159    15.994914619560
         F            1.059004261229    -0.021334854470     1.311280902965    18.998403224000
         F           -1.105634967457     0.093161109452     1.277317178696    18.998403224000
         H            1.055355731272     2.863644232603    -1.731413700453     1.007825032070
         C            1.235005152951     1.799170060121    -1.597519469288    12.000000000000
         H            1.298134887336     1.318008087902    -2.577857934380     1.007825032070
         H            2.170499172748     1.655477828258    -1.049459230880     1.007825032070
         O            0.138299548577     1.291877130275    -0.853324246647    15.994914619560
         H           -1.818418801887     0.061102076472    -1.272230446828     1.007825032070
         C           -0.041473064976    -0.458920691666     0.688310776801    12.000000000000
         F           -0.111827640965    -1.778940784688     0.874850347370    18.998403224000
         H            0.896598858514    -0.602145397791    -1.222786282201     1.007825032070

  Running in c1 symmetry.

  Rotational constants: A =      0.10020  B =      0.05476  C =      0.04547 [cm^-1]
  Rotational constants: A =   3003.81492  B =   1641.58293  C =   1363.16314 [MHz]
  Nuclear repulsion =  447.563184709481618

  Charge       = 0
  Multiplicity = 1
  Electrons    = 66
  Nalpha       = 33
  Nbeta        = 33

  ==> Algorithm <==

  SCF Algorithm Type is DF.
  DIIS enabled.
  MOM disabled.
  Fractional occupation disabled.
  Guess Type is SAD.
  Energy threshold   = 1.00e-08
  Density threshold  = 1.00e-08
  Integral threshold = 0.00e+00

  ==> Primary Basis <==

  Basis Set: 6-311++G(D,P)
    Blend: 6-311++G(D,P)
    Number of shells: 105
    Number of basis function: 211
    Number of Cartesian functions: 219
    Spherical Harmonics?: true
    Max angular momentum: 2

  ==> DFT Potential <==

   => Composite Functional: M06-2X <= 

    Hybrid M06-2X Meta-GGA XC Functional

    Y. Zhao and D. G. Truhlar,  Theor. Chem. Acc., 120, 215, 2008


    Deriv               =              1
    GGA                 =           TRUE
    Meta                =           TRUE

    Exchange Hybrid     =           TRUE
    MP2 Hybrid          =          FALSE

   => Exchange Functionals <=

    1.0000   XC_HYB_MGGA_X_M06_2X

   => Exact (HF) Exchange <=

    0.5400               HF 

   => Correlation Functionals <=

    1.0000   XC_MGGA_C_M06_2X

   => Molecular Quadrature <=

    Radial Scheme       =       TREUTLER
    Pruning Scheme      =           FLAT
    Nuclear Scheme      =       TREUTLER

    BS radius alpha     =              1
    Pruning alpha       =              1
    Radial Points       =             75
    Spherical Points    =            302
    Total Points        =         294450
    Total Blocks        =           2250
    Max Points          =            256
    Max Functions       =            197

   => Loading Basis Set <=

    Name: (6-311++G(D,P) AUX)
    Role: JKFIT
    Keyword: DF_BASIS_SCF
    atoms 1, 6, 11       entry C          line   162 file /root/psi4conda/share/psi4/basis/aug-cc-pvtz-jkfit.gbs 
    atoms 2, 9           entry O          line   286 file /root/psi4conda/share/psi4/basis/aug-cc-pvtz-jkfit.gbs 
    atoms 3-4, 12        entry F          line   348 file /root/psi4conda/share/psi4/basis/aug-cc-pvtz-jkfit.gbs 
    atoms 5, 7-8, 10, 13 entry H          line    70 file /root/psi4conda/share/psi4/basis/aug-cc-pvtz-jkfit.gbs 

  ==> Pre-Iterations <==

   -------------------------------------------------------
    Irrep   Nso     Nmo     Nalpha   Nbeta   Ndocc  Nsocc
   -------------------------------------------------------
     A        211     211       0       0       0       0
   -------------------------------------------------------
    Total     211     211      33      33      33       0
   -------------------------------------------------------

  ==> Integral Setup <==

  DFHelper Memory: AOs need 0.430 [GiB]; user supplied 0.366 [GiB]. Turning off in-core AOs.

  ==> MemDFJK: Density-Fitted J/K Matrices <==

    J tasked:                   Yes
    K tasked:                   Yes
    wK tasked:                   No
    OpenMP threads:              16
    Memory (MB):                375
    Algorithm:                 Disk
    Schwarz Cutoff:           1E-12
    Mask sparsity (%):       6.3566
    Fitting Condition:        1E-12

   => Auxiliary Basis Set <=

  Basis Set: (6-311++G(D,P) AUX)
    Blend: AUG-CC-PVTZ-JKFIT
    Number of shells: 310
    Number of basis function: 1062
    Number of Cartesian functions: 1323
    Spherical Harmonics?: true
    Max angular momentum: 4

  Minimum eigenvalue in the overlap matrix is 5.2319713991E-05.
  Using Symmetric Orthogonalization.

  SCF Guess: Superposition of Atomic Densities via on-the-fly atomic UHF.

  ==> Iterations <==

                           Total Energy        Delta E     RMS |[F,P]|

   @DF-RKS iter   0:  -569.37789074459022   -5.69378e+02   8.59456e-02 
   @DF-RKS iter   1:  -567.10941852307337    2.26847e+00   1.19578e-02 
   @DF-RKS iter   2:  -567.13269239408737   -2.32739e-02   1.05546e-02 DIIS
   @DF-RKS iter   3:  -567.27295631257221   -1.40264e-01   1.57751e-03 DIIS
   @DF-RKS iter   4:  -567.27537230905443   -2.41600e-03   4.75516e-04 DIIS
   @DF-RKS iter   5:  -567.27563637564151   -2.64067e-04   2.05922e-04 DIIS
   @DF-RKS iter   6:  -567.27568713908101   -5.07634e-05   6.57622e-05 DIIS
   @DF-RKS iter   7:  -567.27569210580850   -4.96673e-06   1.41104e-05 DIIS
   @DF-RKS iter   8:  -567.27569240690775   -3.01099e-07   3.81389e-06 DIIS
   @DF-RKS iter   9:  -567.27569242584502   -1.89373e-08   1.18945e-06 DIIS
   @DF-RKS iter  10:  -567.27569242790935   -2.06433e-09   4.02914e-07 DIIS
   @DF-RKS iter  11:  -567.27569242810830   -1.98952e-10   1.09632e-07 DIIS
   @DF-RKS iter  12:  -567.27569242812706   -1.87583e-11   2.34365e-08 DIIS
   @DF-RKS iter  13:  -567.27569242812751   -4.54747e-13   1.28756e-08 DIIS
   @DF-RKS iter  14:  -567.27569242812717    3.41061e-13   3.32213e-09 DIIS

  ==> Post-Iterations <==

    Orbital Energies [Eh]
    ---------------------

    Doubly Occupied:                                                      

       1A    -25.284378     2A    -25.283425     3A    -25.282854  
       4A    -19.662153     5A    -19.658483     6A    -10.801042  
       7A    -10.682513     8A    -10.605201     9A     -1.478447  
      10A     -1.384872    11A     -1.383062    12A     -1.235843  
      13A     -1.162769    14A     -0.887914    15A     -0.813044  
      16A     -0.769167    17A     -0.705850    18A     -0.702737  
      19A     -0.690236    20A     -0.629802    21A     -0.606168  
      22A     -0.578464    23A     -0.575383    24A     -0.557414  
      25A     -0.539876    26A     -0.537626    27A     -0.521804  
      28A     -0.519803    29A     -0.500586    30A     -0.485966  
      31A     -0.428257    32A     -0.399612    33A     -0.375996  

    Virtual:                                                              

      34A     -0.005388    35A      0.008186    36A      0.016105  
      37A      0.027320    38A      0.041146    39A      0.054861  
      40A      0.056150    41A      0.068231    42A      0.076371  
      43A      0.092145    44A      0.104486    45A      0.106811  
      46A      0.113652    47A      0.121624    48A      0.130467  
      49A      0.134373    50A      0.150788    51A      0.168981  
      52A      0.177130    53A      0.198326    54A      0.200071  
      55A      0.205919    56A      0.224415    57A      0.236976  
      58A      0.253649    59A      0.259018    60A      0.265435  
      61A      0.272459    62A      0.277599    63A      0.290119  
      64A      0.299370    65A      0.307604    66A      0.311296  
      67A      0.322233    68A      0.329803    69A      0.344054  
      70A      0.354769    71A      0.359491    72A      0.363275  
      73A      0.366943    74A      0.372974    75A      0.382807  
      76A      0.391776    77A      0.406003    78A      0.408782  
      79A      0.437442    80A      0.462813    81A      0.463274  
      82A      0.469913    83A      0.484034    84A      0.535213  
      85A      0.585809    86A      0.595448    87A      0.626903  
      88A      0.646163    89A      0.668154    90A      0.672638  
      91A      0.688644    92A      0.694464    93A      0.727811  
      94A      0.733582    95A      0.757110    96A      0.779619  
      97A      0.945582    98A      0.981410    99A      1.020908  
     100A      1.052365   101A      1.082096   102A      1.102125  
     103A      1.141296   104A      1.162820   105A      1.230871  
     106A      1.237123   107A      1.259216   108A      1.334146  
     109A      1.349564   110A      1.382704   111A      1.416971  
     112A      1.424153   113A      1.451810   114A      1.459100  
     115A      1.472097   116A      1.481048   117A      1.489683  
     118A      1.521120   119A      1.530221   120A      1.536630  
     121A      1.557063   122A      1.561903   123A      1.579094  
     124A      1.589085   125A      1.614463   126A      1.634458  
     127A      1.700583   128A      1.733889   129A      1.741256  
     130A      1.756219   131A      1.785368   132A      1.823367  
     133A      1.839395   134A      1.883717   135A      1.926847  
     136A      1.985530   137A      2.007559   138A      2.018889  
     139A      2.044147   140A      2.087754   141A      2.108912  
     142A      2.127421   143A      2.175382   144A      2.209864  
     145A      2.265480   146A      2.451146   147A      2.503464  
     148A      2.537618   149A      2.554342   150A      2.565051  
     151A      2.624136   152A      2.649100   153A      2.760968  
     154A      2.874395   155A      2.908462   156A      2.931036  
     157A      2.954560   158A      3.012044   159A      3.086320  
     160A      3.121160   161A      3.152392   162A      3.183978  
     163A      3.210923   164A      3.243163   165A      3.351678  
     166A      3.491948   167A      3.702507   168A      3.794599  
     169A      3.805687   170A      3.821395   171A      3.838415  
     172A      3.848209   173A      3.856989   174A      3.863515  
     175A      3.870477   176A      3.881702   177A      3.955007  
     178A      4.017781   179A      4.024881   180A      4.068091  
     181A      4.090594   182A      4.163341   183A      4.232887  
     184A      4.291490   185A      4.305772   186A      4.696945  
     187A      4.993641   188A      5.003683   189A      5.194455  
     190A      5.221275   191A      5.426880   192A      5.511318  
     193A      5.678410   194A      5.857654   195A      6.436185  
     196A      6.460966   197A      6.478240   198A      6.514006  
     199A      6.526504   200A      6.544405   201A      6.592801  
     202A      6.890550   203A      6.896834   204A     23.595740  
     205A     23.808638   206A     23.985423   207A     50.002083  
     208A     50.024590   209A     66.887181   210A     66.898222  
     211A     66.946776  

    Final Occupation by Irrep:
              A 
    DOCC [    33 ]

  Energy converged.

  @DF-RKS Final Energy:  -567.27569242812717

   => Energetics <=

    Nuclear Repulsion Energy =            447.5631847094816180
    One-Electron Energy =               -1671.7272655814144855
    Two-Electron Energy =                 688.9393499938112200
    DFT Exchange-Correlation Energy =     -32.0509615500055673
    Empirical Dispersion Energy =           0.0000000000000000
    VV10 Nonlocal Energy =                  0.0000000000000000
    Total Energy =                       -567.2756924281271722



Properties will be evaluated at   0.000000,   0.000000,   0.000000 [a0]

Properties computed using the SCF density matrix

  Nuclear Dipole Moment: [e a0]
     X:     3.5218      Y:     6.5790      Z:   -10.6411

  Electronic Dipole Moment: [e a0]
     X:    -3.0487      Y:    -5.9762      Z:     9.8316

  Dipole Moment: [e a0]
     X:     0.4731      Y:     0.6028      Z:    -0.8095     Total:     1.1146

  Dipole Moment: [D]
     X:     1.2025      Y:     1.5321      Z:    -2.0575     Total:     2.8331


*** tstop() called on localhost.localdomain at Tue Mar 19 13:06:23 2019
Module time:
	user time   =     248.64 seconds =       4.14 minutes
	system time =       9.15 seconds =       0.15 minutes
	total time  =         18 seconds =       0.30 minutes
Total time:
	user time   =     248.64 seconds =       4.14 minutes
	system time =       9.15 seconds =       0.15 minutes
	total time  =         18 seconds =       0.30 minutes

*** tstart() called on localhost.localdomain
*** at Tue Mar 19 13:06:23 2019


         ------------------------------------------------------------
                                   SCF GRAD                          
                          Rob Parrish, Justin Turney,                
                       Andy Simmonett, and Alex Sokolov              
         ------------------------------------------------------------

  ==> Geometry <==

    Molecular point group: c1
    Full point group: C1

    Geometry (in Angstrom), charge = 0, multiplicity = 1:

       Center              X                  Y                   Z               Mass       
    ------------   -----------------  -----------------  -----------------  -----------------
         C            0.026460224061    -0.090206566796    -0.798622543229    12.000000000000
         O           -1.092340847064    -0.535736320776    -1.484344471159    15.994914619560
         F            1.059004261229    -0.021334854470     1.311280902965    18.998403224000
         F           -1.105634967457     0.093161109452     1.277317178696    18.998403224000
         H            1.055355731272     2.863644232603    -1.731413700453     1.007825032070
         C            1.235005152951     1.799170060121    -1.597519469288    12.000000000000
         H            1.298134887336     1.318008087902    -2.577857934380     1.007825032070
         H            2.170499172748     1.655477828258    -1.049459230880     1.007825032070
         O            0.138299548577     1.291877130275    -0.853324246647    15.994914619560
         H           -1.818418801887     0.061102076472    -1.272230446828     1.007825032070
         C           -0.041473064976    -0.458920691666     0.688310776801    12.000000000000
         F           -0.111827640965    -1.778940784688     0.874850347370    18.998403224000
         H            0.896598858514    -0.602145397791    -1.222786282201     1.007825032070

  Nuclear repulsion =  447.563184709481618

  ==> Basis Set <==

  Basis Set: 6-311++G(D,P)
    Blend: 6-311++G(D,P)
    Number of shells: 105
    Number of basis function: 211
    Number of Cartesian functions: 219
    Spherical Harmonics?: true
    Max angular momentum: 2

  ==> DFJKGrad: Density-Fitted SCF Gradients <==

    Gradient:                    1
    J tasked:                  Yes
    K tasked:                  Yes
    wK tasked:                  No
    OpenMP threads:             16
    Integrals threads:          16
    Memory (MB):               375
    Schwarz Cutoff:          0E+00
    Fitting Condition:       1E-12

   => Auxiliary Basis Set <=

  Basis Set: (6-311++G(D,P) AUX)
    Blend: AUG-CC-PVTZ-JKFIT
    Number of shells: 310
    Number of basis function: 1062
    Number of Cartesian functions: 1323
    Spherical Harmonics?: true
    Max angular momentum: 4

  ==> DFT Potential <==

   => Composite Functional: M06-2X <= 

    Hybrid M06-2X Meta-GGA XC Functional

    Y. Zhao and D. G. Truhlar,  Theor. Chem. Acc., 120, 215, 2008


    Deriv               =              1
    GGA                 =           TRUE
    Meta                =           TRUE

    Exchange Hybrid     =           TRUE
    MP2 Hybrid          =          FALSE

   => Exchange Functionals <=

    1.0000   XC_HYB_MGGA_X_M06_2X

   => Exact (HF) Exchange <=

    0.5400               HF 

   => Correlation Functionals <=

    1.0000   XC_MGGA_C_M06_2X

   => Molecular Quadrature <=

    Radial Scheme       =       TREUTLER
    Pruning Scheme      =           FLAT
    Nuclear Scheme      =       TREUTLER

    BS radius alpha     =              1
    Pruning alpha       =              1
    Radial Points       =             75
    Spherical Points    =            302
    Total Points        =         294450
    Total Blocks        =           2250
    Max Points          =            256
    Max Functions       =            197


  -Total Gradient:
     Atom            X                  Y                   Z
    ------   -----------------  -----------------  -----------------
       1       -0.000120865525    -0.000539677585    -0.000208986341
       2       -0.001549575343     0.001626205493    -0.000428617350
       3        0.000292442665     0.000008334058    -0.000982089547
       4        0.000167956321    -0.000224461781     0.000156444506
       5       -0.000213192961    -0.000006718411    -0.000165219746
       6       -0.000011271140     0.000656592034     0.000579867432
       7        0.000251310964    -0.000099734638     0.000139348188
       8       -0.000056703751     0.000355231012     0.000216922067
       9       -0.000151288746    -0.000715850747    -0.000474396990
      10        0.001102016450    -0.000097569154    -0.000853462652
      11       -0.000171823138    -0.000377012432     0.000071965124
      12        0.000200666566    -0.000411156630     0.002059303182
      13       -0.000000626513    -0.000073751859    -0.000010189262


*** tstop() called on localhost.localdomain at Tue Mar 19 13:06:27 2019
Module time:
	user time   =      66.61 seconds =       1.11 minutes
	system time =       1.85 seconds =       0.03 minutes
	total time  =          4 seconds =       0.07 minutes
Total time:
	user time   =     315.28 seconds =       5.25 minutes
	system time =      11.00 seconds =       0.18 minutes
	total time  =         22 seconds =       0.37 minutes

			-----------------------------------------
			 OPTKING 2.0: for geometry optimizations 
			  - R.A. King,  Bethel University        
			-----------------------------------------

	Internal coordinates to be generated automatically.
	Detected frag 1 with atoms:  1 2 3 4 5 6 7 8 9 10 11 12 13
	---Fragment 1 Bond Connectivity---
	 1 : 2 9 11 13
	 2 : 1 10
	 3 : 11
	 4 : 11
	 5 : 6
	 6 : 5 7 8 9
	 7 : 6
	 8 : 6
	 9 : 1 6
	 10 : 2
	 11 : 1 3 4 12
	 12 : 11
	 13 : 1

	---Fragment 1 Geometry and Gradient---
	 C           0.0500025769       -0.1704657066       -1.5091778903
	 O          -2.0642250447       -1.0123949257       -2.8050045374
	 F           2.0012280273       -0.0403170320        2.4779617899
	 F          -2.0893472914        0.1760489831        2.4137796526
	 H           1.9943333049        5.4115033416       -3.2718977166
	 C           2.3338215118        3.3999386801       -3.0188742889
	 H           2.4531194206        2.4906743271       -4.8714455055
	 H           4.1016490081        3.1283997145       -1.9831905340
	 O           0.2613482711        2.4412939736       -1.6125491287
	 H          -3.4363135305        0.1154661907       -2.4041671224
	 C          -0.0783727347       -0.8672344240        1.3007188625
	 F          -0.2113236155       -3.3617108897        1.6532275638
	 H           1.6943262936       -1.1378898940       -2.3107311924
	            -0.0001208655       -0.0005396776       -0.0002089863
	            -0.0015495753        0.0016262055       -0.0004286174
	             0.0002924427        0.0000083341       -0.0009820895
	             0.0001679563       -0.0002244618        0.0001564445
	            -0.0002131930       -0.0000067184       -0.0001652197
	            -0.0000112711        0.0006565920        0.0005798674
	             0.0002513110       -0.0000997346        0.0001393482
	            -0.0000567038        0.0003552310        0.0002169221
	            -0.0001512887       -0.0007158507       -0.0004743970
	             0.0011020164       -0.0000975692       -0.0008534627
	            -0.0001718231       -0.0003770124        0.0000719651
	             0.0002006666       -0.0004111566        0.0020593032
	            -0.0000006265       -0.0000737519       -0.0000101893

	Previous optimization step data not found.  Starting new optimization.

	---Fragment 1 Intrafragment Coordinates---
	 - Coordinate -           - BOHR/RAD -       - ANG/DEG -
	 R(1,2)           =         2.618773	       1.385795
	 R(1,9)           =         2.622335	       1.387680
	 R(1,11)          =         2.897842	       1.533472
	 R(1,13)          =         2.069347	       1.095051
	 R(2,10)          =         1.820815	       0.963534
	 R(3,11)          =         2.528722	       1.338142
	 R(4,11)          =         2.524156	       1.335726
	 R(5,6)           =         2.055642	       1.087799
	 R(6,7)           =         2.067127	       1.093876
	 R(6,8)           =         2.066782	       1.093694
	 R(6,9)           =         2.681771	       1.419132
	 R(11,12)         =         2.522767	       1.334991
	 B(1,2,10)        =         1.875802	     107.475516
	 B(1,9,6)         =         2.025260	     116.038853
	 B(1,11,3)        =         1.913845	     109.655268
	 B(1,11,4)        =         1.942813	     111.314958
	 B(1,11,12)       =         1.955811	     112.059716
	 B(2,1,9)         =         1.945248	     111.454497
	 B(2,1,11)        =         1.946296	     111.514560
	 B(2,1,13)        =         1.875016	     107.430483
	 B(3,11,4)        =         1.890983	     108.345327
	 B(3,11,12)       =         1.877200	     107.555641
	 B(4,11,12)       =         1.880821	     107.763127
	 B(5,6,7)         =         1.906736	     109.247923
	 B(5,6,8)         =         1.908696	     109.360242
	 B(5,6,9)         =         1.861599	     106.661794
	 B(7,6,8)         =         1.919779	     109.995235
	 B(7,6,9)         =         1.936207	     110.936502
	 B(8,6,9)         =         1.929723	     110.564968
	 B(9,1,11)        =         1.855911	     106.335893
	 B(9,1,13)        =         1.967420	     112.724880
	 B(11,1,13)       =         1.873795	     107.360569
	 D(1,9,6,5)       =         2.922995	     167.475278
	 D(1,9,6,7)       =         0.848196	      48.598066
	 D(1,9,6,8)       =        -1.286603	     -73.716894
	 D(2,1,9,6)       =        -1.961905	    -112.408899
	 D(2,1,11,3)      =         3.133244	     179.521632
	 D(2,1,11,4)      =        -1.057716	     -60.602660
	 D(2,1,11,12)     =         1.049974	      60.159095
	 D(3,11,1,9)      =        -1.026152	     -58.794189
	 D(3,11,1,13)     =         1.083789	      62.096532
	 D(4,11,1,9)      =         1.066074	      61.081519
	 D(4,11,1,13)     =        -3.107171	    -178.027760
	 D(6,9,1,11)      =         2.196822	     125.868650
	 D(6,9,1,13)      =         0.148186	       8.490422
	 D(9,1,2,10)      =        -0.737023	     -42.228328
	 D(9,1,11,12)     =        -3.109421	    -178.156726
	 D(10,2,1,11)     =         1.334156	      76.441505
	 D(10,2,1,13)     =        -2.900312	    -166.175645
	 D(12,11,1,13)    =        -0.999480	     -57.266005

	Current energy   :      -567.2756924281

	Generating empirical Hessian (Schlegel '84) for each fragment.
	Taking RFO optimization step.
	Going to follow RFO solution 1.
	Using RFO vector 1.
	Norm of target step-size    0.38194
	Projected energy change by RFO approximation:         0.0047204432

	Back-transformation to cartesian coordinates...
	Could not converge backtransformation.
	Using first guess instead.

	--- Internal Coordinate Step in ANG or DEG, aJ/ANG or AJ/DEG ---
	 ---------------------------------------------------------------------------
	   Coordinate                Previous        Force       Change         New 
	   ----------                --------       ------       ------       ------
	    1 R(1,2)          =      1.385795    -0.003967     0.000960     1.386754
	    2 R(1,9)          =      1.387680    -0.001142    -0.000091     1.387589
	    3 R(1,11)         =      1.533472    -0.012125    -0.000964     1.532507
	    4 R(1,13)         =      1.095051    -0.000507     0.000954     1.096005
	    5 R(2,10)         =      0.963534     0.009098     0.003049     0.966583
	    6 R(3,11)         =      1.338142     0.001581     0.002639     1.340781
	    7 R(4,11)         =      1.335726     0.001532     0.002014     1.337740
	    8 R(5,6)          =      1.087799    -0.000360     0.016421     1.104220
	    9 R(6,7)          =      1.093876     0.000400     0.022567     1.116443
	   10 R(6,8)          =      1.093694    -0.000112     0.022324     1.116018
	   11 R(6,9)          =      1.419132     0.000416     0.002374     1.421506
	   12 R(11,12)        =      1.334991    -0.005658    -0.000289     1.334702
	   13 B(1,2,10)       =    107.475516     0.000017     0.004439   107.479955
	   14 B(1,9,6)        =    116.038853    -0.000231    -0.710995   115.327858
	   15 B(1,11,3)       =    109.655268     0.000193     0.733993   110.389262
	   16 B(1,11,4)       =    111.314958    -0.000020    -0.066881   111.248077
	   17 B(1,11,12)      =    112.059716    -0.000288    -0.974537   111.085179
	   18 B(2,1,9)        =    111.454497     0.000124     0.627648   112.082145
	   19 B(2,1,11)       =    111.514560    -0.000256    -0.916235   110.598325
	   20 B(2,1,13)       =    107.430483     0.000021    -0.249129   107.181354
	   21 B(3,11,4)       =    108.345327    -0.000051     0.055783   108.401110
	   22 B(3,11,12)      =    107.555641     0.000061     0.297325   107.852966
	   23 B(4,11,12)      =    107.763127     0.000111    -0.024855   107.738272
	   24 B(5,6,7)        =    109.247923     0.000001     0.417285   109.665208
	   25 B(5,6,8)        =    109.360242     0.000003     0.504156   109.864398
	   26 B(5,6,9)        =    106.661794     0.000015    -0.780607   105.881187
	   27 B(7,6,8)        =    109.995235    -0.000002     0.124840   110.120075
	   28 B(7,6,9)        =    110.936502    -0.000020    -0.141813   110.794689
	   29 B(8,6,9)        =    110.564968     0.000003    -0.134091   110.430876
	   30 B(9,1,11)       =    106.335893     0.000117     0.495028   106.830921
	   31 B(9,1,13)       =    112.724880    -0.000084    -0.249602   112.475278
	   32 B(11,1,13)      =    107.360569     0.000066     0.252739   107.613308
	   33 D(1,9,6,5)      =    167.475278     0.000010    10.183131   177.658409
	   34 D(1,9,6,7)      =     48.598066     0.000010    10.224631    58.822696
	   35 D(1,9,6,8)      =    -73.716894     0.000013    10.255174   -63.461720
	   36 D(2,1,9,6)      =   -112.408899    -0.000003     5.906174  -106.502725
	   37 D(2,1,11,3)     =    179.521632    -0.000014    -0.867392   178.654240
	   38 D(2,1,11,4)     =    -60.602660    -0.000003    -0.354951   -60.957611
	   39 D(2,1,11,12)    =     60.159095    -0.000019    -1.098592    59.060503
	   40 D(3,11,1,9)     =    -58.794189     0.000004    -0.324309   -59.118498
	   41 D(3,11,1,13)    =     62.096532     0.000004    -0.212503    61.884029
	   42 D(4,11,1,9)     =     61.081519     0.000015     0.188132    61.269651
	   43 D(4,11,1,13)    =   -178.027760     0.000015     0.299938  -177.727822
	   44 D(6,9,1,11)     =    125.868650     0.000035     6.337880   132.206529
	   45 D(6,9,1,13)     =      8.490422     0.000010     5.858960    14.349382
	   46 D(9,1,2,10)     =    -42.228328    -0.000014    -3.903884   -46.132212
	   47 D(9,1,11,12)    =   -178.156726    -0.000001    -0.555509  -178.712235
	   48 D(10,2,1,11)    =     76.441505    -0.000000    -3.476888    72.964617
	   49 D(10,2,1,13)    =   -166.175645    -0.000012    -3.822791  -169.998436
	   50 D(12,11,1,13)   =    -57.266005    -0.000001    -0.443703   -57.709707
	 ---------------------------------------------------------------------------
	Successfully symmetrized geometry.

  ==> Convergence Check <==

  Measures of convergence in internal coordinates in au.
  Criteria marked as inactive (o), active & met (*), and active & unmet ( ).
  --------------------------------------------------------------------------------------------- ~
   Step     Total Energy     Delta E     MAX Force     RMS Force      MAX Disp      RMS Disp    ~
  --------------------------------------------------------------------------------------------- ~
    Convergence Criteria    1.00e-06 *    3.00e-04 *             o    1.20e-03 *             o  ~
  --------------------------------------------------------------------------------------------- ~
      1    -567.27569243   -5.67e+02      3.78e-03      1.15e-03 o    1.79e-01      5.45e-02 o  ~
  ---------------------------------------------------------------------------------------------

	Writing optimization data to binary file.
	Structure for next step:
	Cartesian Geometry (in Angstrom)
	    C     0.0701446259  -0.0775078048  -0.7667711795
	    O    -1.0103722376  -0.5538839319  -1.4938455076
	    F     0.9911473149  -0.0127475775   1.4070665778
	    F    -1.1730514912   0.0869124762   1.2460608166
	    H     1.1324884044   2.9052691436  -1.6076977077
	    C     1.2233503009   1.8052134239  -1.6380859122
	    H     1.1159063849   1.4482782047  -2.6904637604
	    H     2.2132824290   1.4949610457  -1.2266580250
	    O     0.1695439126   1.3052674882  -0.8255435107
	    H    -1.7743674152  -0.0049562154  -1.2718724515
	    C    -0.0696274253  -0.4498351685   0.7132338785
	    F    -0.1444092664  -1.7731317461   0.8704673442
	    H     0.9656269774  -0.5786834292  -1.1516896817
			--------------------------
			 OPTKING Finished Execution 
			--------------------------

    Structure for next step:
    Molecular point group: c1
    Full point group: C1

    Geometry (in Angstrom), charge = 0, multiplicity = 1:

    C            0.079992645282    -0.080439340825    -0.778570430899
    O           -1.000524218270    -0.556815467931    -1.505644758999
    F            1.000995334251    -0.015679113534     1.395267326452
    F           -1.163203471865     0.083980940199     1.234261565174
    H            1.142336423742     2.902337607598    -1.619496959129
    C            1.233198320279     1.802281887886    -1.649885163593
    H            1.125754404236     1.445346668683    -2.702263011762
    H            2.223130448376     1.492029509654    -1.238457276331
    O            0.179391931974     1.302335952130    -0.837342762104
    H           -1.764519395833    -0.007887751476    -1.283671702831
    C           -0.059779405919    -0.452766704569     0.701434627114
    F           -0.134561247084    -1.776063282116     0.858668092814
    H            0.975474996704    -0.581614965188    -1.163488933072

gradient() will perform analytic gradient computation.

*** tstart() called on localhost.localdomain
*** at Tue Mar 19 13:06:27 2019

   => Loading Basis Set <=

    Name: 6-311++G(D,P)
    Role: ORBITAL
    Keyword: BASIS
    atoms 1, 6, 11       entry C          line   119 file /root/psi4conda/share/psi4/basis/6-311ppg_d_p_.gbs 
    atoms 2, 9           entry O          line   161 file /root/psi4conda/share/psi4/basis/6-311ppg_d_p_.gbs 
    atoms 3-4, 12        entry F          line   182 file /root/psi4conda/share/psi4/basis/6-311ppg_d_p_.gbs 
    atoms 5, 7-8, 10, 13 entry H          line    42 file /root/psi4conda/share/psi4/basis/6-311ppg_d_p_.gbs 


         ---------------------------------------------------------
                                   SCF
            by Justin Turney, Rob Parrish, Andy Simmonett
                             and Daniel Smith
                              RKS Reference
                       16 Threads,    500 MiB Core
         ---------------------------------------------------------

  ==> Geometry <==

    Molecular point group: c1
    Full point group: C1

    Geometry (in Angstrom), charge = 0, multiplicity = 1:

       Center              X                  Y                   Z               Mass       
    ------------   -----------------  -----------------  -----------------  -----------------
         C            0.079992645282    -0.080439340825    -0.778570430899    12.000000000000
         O           -1.000524218270    -0.556815467931    -1.505644758999    15.994914619560
         F            1.000995334251    -0.015679113534     1.395267326452    18.998403224000
         F           -1.163203471865     0.083980940199     1.234261565174    18.998403224000
         H            1.142336423742     2.902337607598    -1.619496959129     1.007825032070
         C            1.233198320279     1.802281887886    -1.649885163593    12.000000000000
         H            1.125754404236     1.445346668683    -2.702263011762     1.007825032070
         H            2.223130448376     1.492029509654    -1.238457276331     1.007825032070
         O            0.179391931974     1.302335952130    -0.837342762104    15.994914619560
         H           -1.764519395833    -0.007887751476    -1.283671702831     1.007825032070
         C           -0.059779405919    -0.452766704569     0.701434627114    12.000000000000
         F           -0.134561247084    -1.776063282116     0.858668092814    18.998403224000
         H            0.975474996704    -0.581614965188    -1.163488933072     1.007825032070

  Running in c1 symmetry.

  Rotational constants: A =      0.10155  B =      0.05382  C =      0.04514 [cm^-1]
  Rotational constants: A =   3044.37642  B =   1613.61424  C =   1353.24241 [MHz]
  Nuclear repulsion =  446.760855397776197

  Charge       = 0
  Multiplicity = 1
  Electrons    = 66
  Nalpha       = 33
  Nbeta        = 33

  ==> Algorithm <==

  SCF Algorithm Type is DF.
  DIIS enabled.
  MOM disabled.
  Fractional occupation disabled.
  Guess Type is READ.
  Energy threshold   = 1.00e-08
  Density threshold  = 1.00e-08
  Integral threshold = 0.00e+00

  ==> Primary Basis <==

  Basis Set: 6-311++G(D,P)
    Blend: 6-311++G(D,P)
    Number of shells: 105
    Number of basis function: 211
    Number of Cartesian functions: 219
    Spherical Harmonics?: true
    Max angular momentum: 2

  ==> DFT Potential <==

   => Composite Functional: M06-2X <= 

    Hybrid M06-2X Meta-GGA XC Functional

    Y. Zhao and D. G. Truhlar,  Theor. Chem. Acc., 120, 215, 2008


    Deriv               =              1
    GGA                 =           TRUE
    Meta                =           TRUE

    Exchange Hybrid     =           TRUE
    MP2 Hybrid          =          FALSE

   => Exchange Functionals <=

    1.0000   XC_HYB_MGGA_X_M06_2X

   => Exact (HF) Exchange <=

    0.5400               HF 

   => Correlation Functionals <=

    1.0000   XC_MGGA_C_M06_2X

   => Molecular Quadrature <=

    Radial Scheme       =       TREUTLER
    Pruning Scheme      =           FLAT
    Nuclear Scheme      =       TREUTLER

    BS radius alpha     =              1
    Pruning alpha       =              1
    Radial Points       =             75
    Spherical Points    =            302
    Total Points        =         294450
    Total Blocks        =           2250
    Max Points          =            256
    Max Functions       =            197

   => Loading Basis Set <=

    Name: (6-311++G(D,P) AUX)
    Role: JKFIT
    Keyword: DF_BASIS_SCF
    atoms 1, 6, 11       entry C          line   162 file /root/psi4conda/share/psi4/basis/aug-cc-pvtz-jkfit.gbs 
    atoms 2, 9           entry O          line   286 file /root/psi4conda/share/psi4/basis/aug-cc-pvtz-jkfit.gbs 
    atoms 3-4, 12        entry F          line   348 file /root/psi4conda/share/psi4/basis/aug-cc-pvtz-jkfit.gbs 
    atoms 5, 7-8, 10, 13 entry H          line    70 file /root/psi4conda/share/psi4/basis/aug-cc-pvtz-jkfit.gbs 

  Reading orbitals from file 180, no projection.

  ==> Pre-Iterations <==

   -------------------------------------------------------
    Irrep   Nso     Nmo     Nalpha   Nbeta   Ndocc  Nsocc
   -------------------------------------------------------
     A        211     211       0       0       0       0
   -------------------------------------------------------
    Total     211     211      33      33      33       0
   -------------------------------------------------------

  ==> Integral Setup <==

  DFHelper Memory: AOs need 0.430 [GiB]; user supplied 0.366 [GiB]. Turning off in-core AOs.

  ==> MemDFJK: Density-Fitted J/K Matrices <==

    J tasked:                   Yes
    K tasked:                   Yes
    wK tasked:                   No
    OpenMP threads:              16
    Memory (MB):                375
    Algorithm:                 Disk
    Schwarz Cutoff:           1E-12
    Mask sparsity (%):       6.4689
    Fitting Condition:        1E-12

   => Auxiliary Basis Set <=

  Basis Set: (6-311++G(D,P) AUX)
    Blend: AUG-CC-PVTZ-JKFIT
    Number of shells: 310
    Number of basis function: 1062
    Number of Cartesian functions: 1323
    Spherical Harmonics?: true
    Max angular momentum: 4

  Minimum eigenvalue in the overlap matrix is 5.6628388260E-05.
  Using Symmetric Orthogonalization.

  SCF Guess: Orbitals guess was supplied from a previous computation.

  ==> Iterations <==

                           Total Energy        Delta E     RMS |[F,P]|

   @DF-RKS iter   0:  -567.21306478544727   -5.67213e+02   3.74168e-03 
   @DF-RKS iter   1:  -567.27445563535741   -6.13908e-02   6.28682e-04 
   @DF-RKS iter   2:  -567.27525361846006   -7.97983e-04   4.89281e-04 DIIS
   @DF-RKS iter   3:  -567.27556023470663   -3.06616e-04   1.14403e-04 DIIS
   @DF-RKS iter   4:  -567.27557942265082   -1.91879e-05   6.05019e-05 DIIS
   @DF-RKS iter   5:  -567.27558326756036   -3.84491e-06   1.23441e-05 DIIS
   @DF-RKS iter   6:  -567.27558346649676   -1.98936e-07   3.16053e-06 DIIS
   @DF-RKS iter   7:  -567.27558347939100   -1.28942e-08   1.04707e-06 DIIS
   @DF-RKS iter   8:  -567.27558348128684   -1.89584e-09   4.18598e-07 DIIS
   @DF-RKS iter   9:  -567.27558348148466   -1.97815e-10   1.01635e-07 DIIS
   @DF-RKS iter  10:  -567.27558348149989   -1.52340e-11   2.25129e-08 DIIS
   @DF-RKS iter  11:  -567.27558348150103   -1.13687e-12   7.49695e-09 DIIS

  ==> Post-Iterations <==

    Orbital Energies [Eh]
    ---------------------

    Doubly Occupied:                                                      

       1A    -25.285510     2A    -25.283611     3A    -25.283534  
       4A    -19.662845     5A    -19.658949     6A    -10.802239  
       7A    -10.682324     8A    -10.611247     9A     -1.477994  
      10A     -1.385011    11A     -1.383376    12A     -1.235202  
      13A     -1.162719    14A     -0.887417    15A     -0.809831  
      16A     -0.767443    17A     -0.705697    18A     -0.702308  
      19A     -0.690935    20A     -0.627516    21A     -0.605167  
      22A     -0.578671    23A     -0.575321    24A     -0.554523  
      25A     -0.540849    26A     -0.538318    27A     -0.520637  
      28A     -0.519353    29A     -0.501006    30A     -0.482541  
      31A     -0.426621    32A     -0.400777    33A     -0.376083  

    Virtual:                                                              

      34A     -0.005592    35A      0.007880    36A      0.016242  
      37A      0.027041    38A      0.041132    39A      0.054011  
      40A      0.055859    41A      0.067412    42A      0.076216  
      43A      0.090859    44A      0.103831    45A      0.105669  
      46A      0.116080    47A      0.120059    48A      0.131781  
      49A      0.133635    50A      0.152580    51A      0.168440  
      52A      0.177888    53A      0.194139    54A      0.199662  
      55A      0.203594    56A      0.218894    57A      0.236503  
      58A      0.248033    59A      0.255919    60A      0.264114  
      61A      0.270805    62A      0.275454    63A      0.291253  
      64A      0.296522    65A      0.304547    66A      0.307124  
      67A      0.319154    68A      0.328644    69A      0.346990  
      70A      0.356137    71A      0.363558    72A      0.364015  
      73A      0.367891    74A      0.373749    75A      0.380883  
      76A      0.391555    77A      0.402623    78A      0.407753  
      79A      0.435741    80A      0.463364    81A      0.464907  
      82A      0.476768    83A      0.488376    84A      0.536884  
      85A      0.580974    86A      0.600588    87A      0.628311  
      88A      0.638535    89A      0.664915    90A      0.668193  
      91A      0.686488    92A      0.691861    93A      0.717441  
      94A      0.726279    95A      0.754809    96A      0.779501  
      97A      0.953171    98A      0.982188    99A      1.013822  
     100A      1.046631   101A      1.084781   102A      1.092590  
     103A      1.137586   104A      1.165229   105A      1.232390  
     106A      1.242422   107A      1.263298   108A      1.330515  
     109A      1.355692   110A      1.384433   111A      1.415650  
     112A      1.435630   113A      1.450369   114A      1.452991  
     115A      1.459560   116A      1.475898   117A      1.488790  
     118A      1.517493   119A      1.526833   120A      1.536571  
     121A      1.554955   122A      1.561213   123A      1.564371  
     124A      1.591155   125A      1.605607   126A      1.623740  
     127A      1.694299   128A      1.726643   129A      1.734760  
     130A      1.754652   131A      1.787695   132A      1.811198  
     133A      1.841697   134A      1.876247   135A      1.928167  
     136A      1.973119   137A      2.010769   138A      2.023513  
     139A      2.034443   140A      2.089337   141A      2.108144  
     142A      2.130066   143A      2.153760   144A      2.193608  
     145A      2.262520   146A      2.414472   147A      2.496151  
     148A      2.505364   149A      2.526836   150A      2.578294  
     151A      2.628809   152A      2.645406   153A      2.761335  
     154A      2.864488   155A      2.906071   156A      2.927951  
     157A      2.953558   158A      3.016582   159A      3.087136  
     160A      3.107427   161A      3.149857   162A      3.185471  
     163A      3.214155   164A      3.232916   165A      3.352209  
     166A      3.490663   167A      3.698728   168A      3.770770  
     169A      3.778277   170A      3.799523   171A      3.837039  
     172A      3.845260   173A      3.854721   174A      3.860919  
     175A      3.869292   176A      3.876736   177A      3.953240  
     178A      4.007798   179A      4.028282   180A      4.066441  
     181A      4.092174   182A      4.164685   183A      4.230802  
     184A      4.288866   185A      4.302368   186A      4.695721  
     187A      4.990979   188A      5.001824   189A      5.197429  
     190A      5.217906   191A      5.422195   192A      5.510680  
     193A      5.669607   194A      5.852307   195A      6.438420  
     196A      6.457949   197A      6.478238   198A      6.511530  
     199A      6.527992   200A      6.542191   201A      6.590149  
     202A      6.889419   203A      6.892866   204A     23.592412  
     205A     23.805758   206A     23.933846   207A     50.001854  
     208A     50.024047   209A     66.886849   210A     66.898539  
     211A     66.945728  

    Final Occupation by Irrep:
              A 
    DOCC [    33 ]

  Energy converged.

  @DF-RKS Final Energy:  -567.27558348150103

   => Energetics <=

    Nuclear Repulsion Energy =            446.7608553977761972
    One-Electron Energy =               -1670.1431968735555529
    Two-Electron Energy =                 688.1452422658149999
    DFT Exchange-Correlation Energy =     -32.0384842715366105
    Empirical Dispersion Energy =           0.0000000000000000
    VV10 Nonlocal Energy =                  0.0000000000000000
    Total Energy =                       -567.2755834815010303



Properties will be evaluated at   0.000000,   0.000000,   0.000000 [a0]

Properties computed using the SCF density matrix

  Nuclear Dipole Moment: [e a0]
     X:     3.7467      Y:     6.5365      Z:   -10.8085

  Electronic Dipole Moment: [e a0]
     X:    -3.2884      Y:    -5.9580      Z:    10.0084

  Dipole Moment: [e a0]
     X:     0.4583      Y:     0.5785      Z:    -0.8001     Total:     1.0885

  Dipole Moment: [D]
     X:     1.1648      Y:     1.4705      Z:    -2.0337     Total:     2.7667


*** tstop() called on localhost.localdomain at Tue Mar 19 13:06:41 2019
Module time:
	user time   =     201.07 seconds =       3.35 minutes
	system time =       7.34 seconds =       0.12 minutes
	total time  =         14 seconds =       0.23 minutes
Total time:
	user time   =     516.90 seconds =       8.62 minutes
	system time =      18.37 seconds =       0.31 minutes
	total time  =         36 seconds =       0.60 minutes

*** tstart() called on localhost.localdomain
*** at Tue Mar 19 13:06:41 2019


         ------------------------------------------------------------
                                   SCF GRAD                          
                          Rob Parrish, Justin Turney,                
                       Andy Simmonett, and Alex Sokolov              
         ------------------------------------------------------------

  ==> Geometry <==

    Molecular point group: c1
    Full point group: C1

    Geometry (in Angstrom), charge = 0, multiplicity = 1:

       Center              X                  Y                   Z               Mass       
    ------------   -----------------  -----------------  -----------------  -----------------
         C            0.079992645282    -0.080439340825    -0.778570430899    12.000000000000
         O           -1.000524218270    -0.556815467931    -1.505644758999    15.994914619560
         F            1.000995334251    -0.015679113534     1.395267326452    18.998403224000
         F           -1.163203471865     0.083980940199     1.234261565174    18.998403224000
         H            1.142336423742     2.902337607598    -1.619496959129     1.007825032070
         C            1.233198320279     1.802281887886    -1.649885163593    12.000000000000
         H            1.125754404236     1.445346668683    -2.702263011762     1.007825032070
         H            2.223130448376     1.492029509654    -1.238457276331     1.007825032070
         O            0.179391931974     1.302335952130    -0.837342762104    15.994914619560
         H           -1.764519395833    -0.007887751476    -1.283671702831     1.007825032070
         C           -0.059779405919    -0.452766704569     0.701434627114    12.000000000000
         F           -0.134561247084    -1.776063282116     0.858668092814    18.998403224000
         H            0.975474996704    -0.581614965188    -1.163488933072     1.007825032070

  Nuclear repulsion =  446.760855397776197

  ==> Basis Set <==

  Basis Set: 6-311++G(D,P)
    Blend: 6-311++G(D,P)
    Number of shells: 105
    Number of basis function: 211
    Number of Cartesian functions: 219
    Spherical Harmonics?: true
    Max angular momentum: 2

  ==> DFJKGrad: Density-Fitted SCF Gradients <==

    Gradient:                    1
    J tasked:                  Yes
    K tasked:                  Yes
    wK tasked:                  No
    OpenMP threads:             16
    Integrals threads:          16
    Memory (MB):               375
    Schwarz Cutoff:          0E+00
    Fitting Condition:       1E-12

   => Auxiliary Basis Set <=

  Basis Set: (6-311++G(D,P) AUX)
    Blend: AUG-CC-PVTZ-JKFIT
    Number of shells: 310
    Number of basis function: 1062
    Number of Cartesian functions: 1323
    Spherical Harmonics?: true
    Max angular momentum: 4

  ==> DFT Potential <==

   => Composite Functional: M06-2X <= 

    Hybrid M06-2X Meta-GGA XC Functional

    Y. Zhao and D. G. Truhlar,  Theor. Chem. Acc., 120, 215, 2008


    Deriv               =              1
    GGA                 =           TRUE
    Meta                =           TRUE

    Exchange Hybrid     =           TRUE
    MP2 Hybrid          =          FALSE

   => Exchange Functionals <=

    1.0000   XC_HYB_MGGA_X_M06_2X

   => Exact (HF) Exchange <=

    0.5400               HF 

   => Correlation Functionals <=

    1.0000   XC_MGGA_C_M06_2X

   => Molecular Quadrature <=

    Radial Scheme       =       TREUTLER
    Pruning Scheme      =           FLAT
    Nuclear Scheme      =       TREUTLER

    BS radius alpha     =              1
    Pruning alpha       =              1
    Radial Points       =             75
    Spherical Points    =            302
    Total Points        =         294450
    Total Blocks        =           2250
    Max Points          =            256
    Max Functions       =            197


  -Total Gradient:
     Atom            X                  Y                   Z
    ------   -----------------  -----------------  -----------------
       1        0.000181547188    -0.000488404271     0.000681429430
       2        0.000922439367    -0.001009818348     0.000114719356
       3        0.003384979871     0.001309365629     0.001120127079
       4       -0.001310191475     0.000005603982     0.000377481539
       5       -0.002517948895     0.010806505266     0.001146624306
       6       -0.005118710390    -0.001210256236     0.006181991345
       7       -0.001826863790    -0.004504704469    -0.012910941416
       8        0.011746197356    -0.004527672504     0.005591190015
       9       -0.002984244625     0.000282168151    -0.001360661149
      10       -0.001156667877     0.001585463408     0.000221194051
      11       -0.001727807558    -0.001543067429    -0.000551301717
      12       -0.000615432744    -0.000670873802     0.000163252301
      13        0.000558815839    -0.000156979315    -0.000645551134


*** tstop() called on localhost.localdomain at Tue Mar 19 13:06:46 2019
Module time:
	user time   =      61.60 seconds =       1.03 minutes
	system time =       1.87 seconds =       0.03 minutes
	total time  =          5 seconds =       0.08 minutes
Total time:
	user time   =     578.57 seconds =       9.64 minutes
	system time =      20.25 seconds =       0.34 minutes
	total time  =         41 seconds =       0.68 minutes

			-----------------------------------------
			 OPTKING 2.0: for geometry optimizations 
			  - R.A. King,  Bethel University        
			-----------------------------------------

	Previous internal coordinate definitions found.
	---Fragment 1 Geometry and Gradient---
	 C           0.1511641922       -0.1520083245       -1.4712848896
	 O          -1.8907167618       -1.0522287409       -2.8452562479
	 F           1.8916070420       -0.0296292306        2.6366731292
	 F          -2.1981359986        0.1587009774        2.3324163345
	 H           2.1587029925        5.4846232235       -3.0604057258
	 C           2.3304070929        3.4058191824       -3.1178311099
	 H           2.1273675169        2.7313093709       -5.1065370313
	 H           4.2011077051        2.8195271554       -2.3403450795
	 O           0.3390016219        2.4610582825       -1.5823484997
	 H          -3.3344584143       -0.0149056901       -2.4257879629
	 C          -0.1129667056       -0.8556050737        1.3255193454
	 F          -0.2542839051       -3.3562731979        1.6226475345
	 H           1.8433805932       -1.0990929990       -2.1986754421
	             0.0001815472       -0.0004884043        0.0006814294
	             0.0009224394       -0.0010098183        0.0001147194
	             0.0033849799        0.0013093656        0.0011201271
	            -0.0013101915        0.0000056040        0.0003774815
	            -0.0025179489        0.0108065053        0.0011466243
	            -0.0051187104       -0.0012102562        0.0061819913
	            -0.0018268638       -0.0045047045       -0.0129109414
	             0.0117461974       -0.0045276725        0.0055911900
	            -0.0029842446        0.0002821682       -0.0013606611
	            -0.0011566679        0.0015854634        0.0002211941
	            -0.0017278076       -0.0015430674       -0.0005513017
	            -0.0006154327       -0.0006708738        0.0001632523
	             0.0005588158       -0.0001569793       -0.0006455511

	---Fragment 1 Intrafragment Coordinates---
	 - Coordinate -           - BOHR/RAD -       - ANG/DEG -
	 R(1,2)           =         2.620586	       1.386754
	 R(1,9)           =         2.622162	       1.387589
	 R(1,11)          =         2.896019	       1.532507
	 R(1,13)          =         2.071150	       1.096005
	 R(2,10)          =         1.826577	       0.966583
	 R(3,11)          =         2.533708	       1.340781
	 R(4,11)          =         2.527961	       1.337740
	 R(5,6)           =         2.086673	       1.104220
	 R(6,7)           =         2.109772	       1.116443
	 R(6,8)           =         2.108967	       1.116018
	 R(6,9)           =         2.686257	       1.421506
	 R(11,12)         =         2.522221	       1.334702
	 B(1,2,10)        =         1.875879	     107.479955
	 B(1,9,6)         =         2.012851	     115.327858
	 B(1,11,3)        =         1.926656	     110.389262
	 B(1,11,4)        =         1.941645	     111.248077
	 B(1,11,12)       =         1.938802	     111.085179
	 B(2,1,9)         =         1.956202	     112.082145
	 B(2,1,11)        =         1.930305	     110.598325
	 B(2,1,13)        =         1.870668	     107.181354
	 B(3,11,4)        =         1.891956	     108.401110
	 B(3,11,12)       =         1.882389	     107.852966
	 B(4,11,12)       =         1.880388	     107.738272
	 B(5,6,7)         =         1.914019	     109.665208
	 B(5,6,8)         =         1.917495	     109.864398
	 B(5,6,9)         =         1.847975	     105.881187
	 B(7,6,8)         =         1.921958	     110.120075
	 B(7,6,9)         =         1.933732	     110.794689
	 B(8,6,9)         =         1.927382	     110.430876
	 B(9,1,11)        =         1.864551	     106.830921
	 B(9,1,13)        =         1.963064	     112.475278
	 B(11,1,13)       =         1.878207	     107.613308
	 D(1,9,6,5)       =         3.100724	     177.658409
	 D(1,9,6,7)       =         1.026650	      58.822696
	 D(1,9,6,8)       =        -1.107616	     -63.461720
	 D(2,1,9,6)       =        -1.858823	    -106.502725
	 D(2,1,11,3)      =         3.118105	     178.654240
	 D(2,1,11,4)      =        -1.063911	     -60.957611
	 D(2,1,11,12)     =         1.030800	      59.060503
	 D(3,11,1,9)      =        -1.031812	     -59.118498
	 D(3,11,1,13)     =         1.080080	      61.884029
	 D(4,11,1,9)      =         1.069357	      61.269651
	 D(4,11,1,13)     =        -3.101936	    -177.727822
	 D(6,9,1,11)      =         2.307439	     132.206529
	 D(6,9,1,13)      =         0.250444	      14.349382
	 D(9,1,2,10)      =        -0.805159	     -46.132212
	 D(9,1,11,12)     =        -3.119117	    -178.712235
	 D(10,2,1,11)     =         1.273473	      72.964617
	 D(10,2,1,13)     =        -2.967032	    -169.998436
	 D(12,11,1,13)    =        -1.007224	     -57.709707

	Current energy   :      -567.2755834815

	Energy change for the previous step:
		Projected    :         0.0047204432
		Actual       :         0.0001089466

	Performing BFGS update.
	Previous computed or guess Hessian on step 1.
	Steps to be used in Hessian update: 1
	Taking RFO optimization step.
	Going to follow RFO solution 1.
	Using RFO vector 1.
	Norm of target step-size    0.17348
	Projected energy change by RFO approximation:        -0.0018853367

	Back-transformation to cartesian coordinates...
	Successfully converged to displaced geometry.

	--- Internal Coordinate Step in ANG or DEG, aJ/ANG or AJ/DEG ---
	 ---------------------------------------------------------------------------
	   Coordinate                Previous        Force       Change         New 
	   ----------                --------       ------       ------       ------
	    1 R(1,2)          =      1.386754     0.002052    -0.000580     1.386174
	    2 R(1,9)          =      1.387589    -0.007369    -0.000465     1.387124
	    3 R(1,11)         =      1.532507    -0.010525    -0.002127     1.530381
	    4 R(1,13)         =      1.096005    -0.006458    -0.000942     1.095063
	    5 R(2,10)         =      0.966583    -0.015133    -0.001348     0.965235
	    6 R(3,11)         =      1.340781    -0.030733    -0.002387     1.338394
	    7 R(4,11)         =      1.337740    -0.009884    -0.001168     1.336572
	    8 R(5,6)          =      1.104220    -0.090692    -0.013546     1.090674
	    9 R(6,7)          =      1.116443    -0.113766    -0.017867     1.098576
	   10 R(6,8)          =      1.116018    -0.113249    -0.017779     1.098238
	   11 R(6,9)          =      1.421506    -0.016658    -0.001964     1.419542
	   12 R(11,12)        =      1.334702    -0.005743    -0.000509     1.334193
	   13 B(1,2,10)       =    107.479955     0.000049    -0.005039   107.474916
	   14 B(1,9,6)        =    115.327858    -0.000145    -0.392019   114.935839
	   15 B(1,11,3)       =    110.389262     0.000120     0.240084   110.629346
	   16 B(1,11,4)       =    111.248077    -0.000022    -0.021044   111.227033
	   17 B(1,11,12)      =    111.085179    -0.000029    -0.221221   110.863958
	   18 B(2,1,9)        =    112.082145     0.000070     0.304093   112.386239
	   19 B(2,1,11)       =    110.598325    -0.000026    -0.224786   110.373540
	   20 B(2,1,13)       =    107.181354    -0.000024    -0.139052   107.042302
	   21 B(3,11,4)       =    108.401110    -0.000065    -0.118639   108.282471
	   22 B(3,11,12)      =    107.852966    -0.000046     0.023375   107.876342
	   23 B(4,11,12)      =    107.738272     0.000038     0.096661   107.834933
	   24 B(5,6,7)        =    109.665208    -0.000067    -0.231020   109.434188
	   25 B(5,6,8)        =    109.864398    -0.000119    -0.331979   109.532418
	   26 B(5,6,9)        =    105.881187     0.000189     0.575176   106.456363
	   27 B(7,6,8)        =    110.120075    -0.000063    -0.182279   109.937796
	   28 B(7,6,9)        =    110.794689     0.000011     0.073897   110.868586
	   29 B(8,6,9)        =    110.430876     0.000056     0.110625   110.541501
	   30 B(9,1,11)       =    106.830921    -0.000041     0.061600   106.892521
	   31 B(9,1,13)       =    112.475278    -0.000009    -0.080718   112.394560
	   32 B(11,1,13)      =    107.613308     0.000029     0.065167   107.678476
	   33 D(1,9,6,5)      =    177.658409     0.000001     1.993067   179.651477
	   34 D(1,9,6,7)      =     58.822696    -0.000007     1.888102    60.710799
	   35 D(1,9,6,8)      =    -63.461720     0.000001     1.993153   -61.468567
	   36 D(2,1,9,6)      =   -106.502725     0.000018     4.626193  -101.876532
	   37 D(2,1,11,3)     =    178.654240    -0.000003     0.422458   179.076697
	   38 D(2,1,11,4)     =    -60.957611    -0.000007     0.419826   -60.537785
	   39 D(2,1,11,12)    =     59.060503    -0.000004     0.379672    59.440175
	   40 D(3,11,1,9)     =    -59.118498     0.000007     0.699385   -58.419113
	   41 D(3,11,1,13)    =     61.884029     0.000003     0.673516    62.557545
	   42 D(4,11,1,9)     =     61.269651     0.000004     0.696753    61.966404
	   43 D(4,11,1,13)    =   -177.727822    -0.000000     0.670884  -177.056938
	   44 D(6,9,1,11)     =    132.206529     0.000022     4.680184   136.886713
	   45 D(6,9,1,13)     =     14.349382     0.000021     4.607413    18.956795
	   46 D(9,1,2,10)     =    -46.132212    -0.000003    -1.720064   -47.852276
	   47 D(9,1,11,12)    =   -178.712235     0.000007     0.656599  -178.055636
	   48 D(10,2,1,11)    =     72.964617    -0.000008    -1.594835    71.369782
	   49 D(10,2,1,13)    =   -169.998436    -0.000006    -1.717483  -171.715919
	   50 D(12,11,1,13)   =    -57.709707     0.000003     0.630730   -57.078978
	 ---------------------------------------------------------------------------
	Successfully symmetrized geometry.

  ==> Convergence Check <==

  Measures of convergence in internal coordinates in au.
  Criteria marked as inactive (o), active & met (*), and active & unmet ( ).
  ---------------------------------------------------------------------------------------------
   Step     Total Energy     Delta E     MAX Force     RMS Force      MAX Disp      RMS Disp   
  ---------------------------------------------------------------------------------------------
    Convergence Criteria    1.00e-06 *    3.00e-04 *             o    1.20e-03 *             o
  ---------------------------------------------------------------------------------------------
      2    -567.27558348    1.09e-04      1.38e-02      3.32e-03 o    8.17e-02      2.45e-02 o  ~
  ---------------------------------------------------------------------------------------------

	Writing optimization data to binary file.
	Structure for next step:
	Cartesian Geometry (in Angstrom)
	    C     0.1187890801  -0.0749907288  -0.7704818125
	    O    -0.9273973477  -0.5588296610  -1.5404637547
	    F     0.9621815894  -0.0482445901   1.4351068296
	    F    -1.1927783637  -0.0127049796   1.2007057745
	    H     1.1196790270   2.9345466398  -1.5450135866
	    C     1.1906701045   1.8498302374  -1.6340138922
	    H     1.0179997781   1.5567058902  -2.6785868564
	    H     2.1873727729   1.5194547753  -1.3122022899
	    O     0.1889245459   1.3102806298  -0.7851962239
	    H    -1.7166938151  -0.0548930157  -1.3065021338
	    C    -0.0558573158  -0.4959187412   0.6904711903
	    F    -0.0907271465  -1.8250594015   0.8011068635
	    H     1.0355238567  -0.5431311143  -1.1441194951
			--------------------------
			 OPTKING Finished Execution 
			--------------------------

    Structure for next step:
    Molecular point group: c1
    Full point group: C1

    Geometry (in Angstrom), charge = 0, multiplicity = 1:

    C            0.112642786345    -0.051843661833    -0.766482836877
    O           -0.933543641446    -0.535682594096    -1.536464779081
    F            0.956035295589    -0.025097523204     1.439105805213
    F           -1.198924657494     0.010442087318     1.204704750072
    H            1.113532733271     2.957693706765    -1.541014611019
    C            1.184523810737     1.872977304351    -1.630014916602
    H            1.011853484343     1.579852957149    -2.674587880762
    H            2.181226479105     1.542601842204    -1.308203314335
    O            0.182778252167     1.333427696746    -0.781197248314
    H           -1.722840108870    -0.031745948753    -1.302503158240
    C           -0.062003609570    -0.472771674228     0.694470165906
    F           -0.096873440250    -1.801912334563     0.805105839082
    H            1.029377562893    -0.519984047341    -1.140120519467

gradient() will perform analytic gradient computation.

*** tstart() called on localhost.localdomain
*** at Tue Mar 19 13:06:46 2019

   => Loading Basis Set <=

    Name: 6-311++G(D,P)
    Role: ORBITAL
    Keyword: BASIS
    atoms 1, 6, 11       entry C          line   119 file /root/psi4conda/share/psi4/basis/6-311ppg_d_p_.gbs 
    atoms 2, 9           entry O          line   161 file /root/psi4conda/share/psi4/basis/6-311ppg_d_p_.gbs 
    atoms 3-4, 12        entry F          line   182 file /root/psi4conda/share/psi4/basis/6-311ppg_d_p_.gbs 
    atoms 5, 7-8, 10, 13 entry H          line    42 file /root/psi4conda/share/psi4/basis/6-311ppg_d_p_.gbs 


         ---------------------------------------------------------
                                   SCF
            by Justin Turney, Rob Parrish, Andy Simmonett
                             and Daniel Smith
                              RKS Reference
                       16 Threads,    500 MiB Core
         ---------------------------------------------------------

  ==> Geometry <==

    Molecular point group: c1
    Full point group: C1

    Geometry (in Angstrom), charge = 0, multiplicity = 1:

       Center              X                  Y                   Z               Mass       
    ------------   -----------------  -----------------  -----------------  -----------------
         C            0.112642786345    -0.051843661833    -0.766482836877    12.000000000000
         O           -0.933543641446    -0.535682594096    -1.536464779081    15.994914619560
         F            0.956035295589    -0.025097523204     1.439105805213    18.998403224000
         F           -1.198924657494     0.010442087318     1.204704750072    18.998403224000
         H            1.113532733271     2.957693706765    -1.541014611019     1.007825032070
         C            1.184523810737     1.872977304351    -1.630014916602    12.000000000000
         H            1.011853484343     1.579852957149    -2.674587880762     1.007825032070
         H            2.181226479105     1.542601842204    -1.308203314335     1.007825032070
         O            0.182778252167     1.333427696746    -0.781197248314    15.994914619560
         H           -1.722840108870    -0.031745948753    -1.302503158240     1.007825032070
         C           -0.062003609570    -0.472771674228     0.694470165906    12.000000000000
         F           -0.096873440250    -1.801912334563     0.805105839082    18.998403224000
         H            1.029377562893    -0.519984047341    -1.140120519467     1.007825032070

  Running in c1 symmetry.

  Rotational constants: A =      0.10297  B =      0.05338  C =      0.04505 [cm^-1]
  Rotational constants: A =   3087.07155  B =   1600.32495  C =   1350.48699 [MHz]
  Nuclear repulsion =  447.216584142135105

  Charge       = 0
  Multiplicity = 1
  Electrons    = 66
  Nalpha       = 33
  Nbeta        = 33

  ==> Algorithm <==

  SCF Algorithm Type is DF.
  DIIS enabled.
  MOM disabled.
  Fractional occupation disabled.
  Guess Type is READ.
  Energy threshold   = 1.00e-08
  Density threshold  = 1.00e-08
  Integral threshold = 0.00e+00

  ==> Primary Basis <==

  Basis Set: 6-311++G(D,P)
    Blend: 6-311++G(D,P)
    Number of shells: 105
    Number of basis function: 211
    Number of Cartesian functions: 219
    Spherical Harmonics?: true
    Max angular momentum: 2

  ==> DFT Potential <==

   => Composite Functional: M06-2X <= 

    Hybrid M06-2X Meta-GGA XC Functional

    Y. Zhao and D. G. Truhlar,  Theor. Chem. Acc., 120, 215, 2008


    Deriv               =              1
    GGA                 =           TRUE
    Meta                =           TRUE

    Exchange Hybrid     =           TRUE
    MP2 Hybrid          =          FALSE

   => Exchange Functionals <=

    1.0000   XC_HYB_MGGA_X_M06_2X

   => Exact (HF) Exchange <=

    0.5400               HF 

   => Correlation Functionals <=

    1.0000   XC_MGGA_C_M06_2X

   => Molecular Quadrature <=

    Radial Scheme       =       TREUTLER
    Pruning Scheme      =           FLAT
    Nuclear Scheme      =       TREUTLER

    BS radius alpha     =              1
    Pruning alpha       =              1
    Radial Points       =             75
    Spherical Points    =            302
    Total Points        =         294450
    Total Blocks        =           2261
    Max Points          =            256
    Max Functions       =            198

   => Loading Basis Set <=

    Name: (6-311++G(D,P) AUX)
    Role: JKFIT
    Keyword: DF_BASIS_SCF
    atoms 1, 6, 11       entry C          line   162 file /root/psi4conda/share/psi4/basis/aug-cc-pvtz-jkfit.gbs 
    atoms 2, 9           entry O          line   286 file /root/psi4conda/share/psi4/basis/aug-cc-pvtz-jkfit.gbs 
    atoms 3-4, 12        entry F          line   348 file /root/psi4conda/share/psi4/basis/aug-cc-pvtz-jkfit.gbs 
    atoms 5, 7-8, 10, 13 entry H          line    70 file /root/psi4conda/share/psi4/basis/aug-cc-pvtz-jkfit.gbs 

  Reading orbitals from file 180, no projection.

  ==> Pre-Iterations <==

   -------------------------------------------------------
    Irrep   Nso     Nmo     Nalpha   Nbeta   Ndocc  Nsocc
   -------------------------------------------------------
     A        211     211       0       0       0       0
   -------------------------------------------------------
    Total     211     211      33      33      33       0
   -------------------------------------------------------

  ==> Integral Setup <==

  DFHelper Memory: AOs need 0.430 [GiB]; user supplied 0.366 [GiB]. Turning off in-core AOs.

  ==> MemDFJK: Density-Fitted J/K Matrices <==

    J tasked:                   Yes
    K tasked:                   Yes
    wK tasked:                   No
    OpenMP threads:              16
    Memory (MB):                375
    Algorithm:                 Disk
    Schwarz Cutoff:           1E-12
    Mask sparsity (%):       6.4868
    Fitting Condition:        1E-12

   => Auxiliary Basis Set <=

  Basis Set: (6-311++G(D,P) AUX)
    Blend: AUG-CC-PVTZ-JKFIT
    Number of shells: 310
    Number of basis function: 1062
    Number of Cartesian functions: 1323
    Spherical Harmonics?: true
    Max angular momentum: 4

  Minimum eigenvalue in the overlap matrix is 5.8155034188E-05.
  Using Symmetric Orthogonalization.

  SCF Guess: Orbitals guess was supplied from a previous computation.

  ==> Iterations <==

                           Total Energy        Delta E     RMS |[F,P]|

   @DF-RKS iter   0:  -567.27841545278591   -5.67278e+02   3.28518e-03 
   @DF-RKS iter   1:  -567.27632491759016    2.09054e-03   4.00458e-04 
   @DF-RKS iter   2:  -567.27664063940051   -3.15722e-04   2.42222e-04 DIIS
   @DF-RKS iter   3:  -567.27669344181663   -5.28024e-05   1.32010e-04 DIIS
   @DF-RKS iter   4:  -567.27671101731994   -1.75755e-05   2.94938e-05 DIIS
   @DF-RKS iter   5:  -567.27671214828831   -1.13097e-06   7.48502e-06 DIIS
   @DF-RKS iter   6:  -567.27671222499157   -7.67033e-08   1.89987e-06 DIIS
   @DF-RKS iter   7:  -567.27671222977096   -4.77939e-09   8.79870e-07 DIIS
   @DF-RKS iter   8:  -567.27671223058337   -8.12406e-10   2.28896e-07 DIIS
   @DF-RKS iter   9:  -567.27671223064124   -5.78666e-11   6.10559e-08 DIIS
   @DF-RKS iter  10:  -567.27671223064624   -5.00222e-12   1.19535e-08 DIIS
   @DF-RKS iter  11:  -567.27671223064578    4.54747e-13   5.11244e-09 DIIS

  ==> Post-Iterations <==

    Orbital Energies [Eh]
    ---------------------

    Doubly Occupied:                                                      

       1A    -25.285852     2A    -25.283539     3A    -25.283333  
       4A    -19.662389     5A    -19.658880     6A    -10.802156  
       7A    -10.681684     8A    -10.605812     9A     -1.478967  
      10A     -1.385644    11A     -1.383739    12A     -1.235639  
      13A     -1.163319    14A     -0.888582    15A     -0.811818  
      16A     -0.768649    17A     -0.706456    18A     -0.702802  
      19A     -0.692115    20A     -0.628677    21A     -0.605962  
      22A     -0.579094    23A     -0.575823    24A     -0.555797  
      25A     -0.541245    26A     -0.538789    27A     -0.520880  
      28A     -0.520038    29A     -0.503189    30A     -0.482825  
      31A     -0.426423    32A     -0.401434    33A     -0.377284  

    Virtual:                                                              

      34A     -0.005406    35A      0.007936    36A      0.016424  
      37A      0.027370    38A      0.041749    39A      0.053804  
      40A      0.056225    41A      0.067693    42A      0.076588  
      43A      0.090970    44A      0.103657    45A      0.105820  
      46A      0.117789    47A      0.119797    48A      0.131783  
      49A      0.135100    50A      0.153970    51A      0.169235  
      52A      0.179370    53A      0.194193    54A      0.202578  
      55A      0.207202    56A      0.218125    57A      0.238350  
      58A      0.249273    59A      0.254624    60A      0.265559  
      61A      0.270794    62A      0.277220    63A      0.291609  
      64A      0.296204    65A      0.303697    66A      0.306375  
      67A      0.320048    68A      0.328024    69A      0.348301  
      70A      0.357813    71A      0.364175    72A      0.365159  
      73A      0.370136    74A      0.375143    75A      0.380595  
      76A      0.392198    77A      0.401485    78A      0.408138  
      79A      0.434804    80A      0.463866    81A      0.465660  
      82A      0.480924    83A      0.491162    84A      0.539701  
      85A      0.581672    86A      0.603264    87A      0.629979  
      88A      0.638927    89A      0.669601    90A      0.672586  
      91A      0.690660    92A      0.695322    93A      0.724749  
      94A      0.729368    95A      0.755858    96A      0.779489  
      97A      0.955802    98A      0.984143    99A      1.013396  
     100A      1.044345   101A      1.086425   102A      1.093098  
     103A      1.135617   104A      1.166684   105A      1.231380  
     106A      1.244612   107A      1.266731   108A      1.330052  
     109A      1.357665   110A      1.388326   111A      1.413759  
     112A      1.439845   113A      1.449847   114A      1.451847  
     115A      1.470498   116A      1.476877   117A      1.487927  
     118A      1.516408   119A      1.527898   120A      1.536932  
     121A      1.559194   122A      1.561429   123A      1.569734  
     124A      1.601111   125A      1.605798   126A      1.622001  
     127A      1.696938   128A      1.728477   129A      1.733928  
     130A      1.757793   131A      1.788268   132A      1.811203  
     133A      1.847134   134A      1.877972   135A      1.932365  
     136A      1.982427   137A      2.014838   138A      2.025339  
     139A      2.048306   140A      2.091894   141A      2.119197  
     142A      2.139740   143A      2.158716   144A      2.202328  
     145A      2.267823   146A      2.445461   147A      2.506168  
     148A      2.527227   149A      2.550309   150A      2.566840  
     151A      2.634977   152A      2.644105   153A      2.766130  
     154A      2.861615   155A      2.909232   156A      2.929993  
     157A      2.956456   158A      3.022627   159A      3.077034  
     160A      3.113521   161A      3.150685   162A      3.190945  
     163A      3.224608   164A      3.239938   165A      3.358145  
     166A      3.492984   167A      3.700307   168A      3.785672  
     169A      3.799427   170A      3.812001   171A      3.837232  
     172A      3.847344   173A      3.855058   174A      3.862575  
     175A      3.869464   176A      3.880174   177A      3.954197  
     178A      4.006608   179A      4.032479   180A      4.069297  
     181A      4.101420   182A      4.172827   183A      4.234272  
     184A      4.292428   185A      4.303738   186A      4.698873  
     187A      4.992468   188A      5.003011   189A      5.199082  
     190A      5.216242   191A      5.424784   192A      5.515339  
     193A      5.674913   194A      5.856490   195A      6.441032  
     196A      6.458534   197A      6.477850   198A      6.510960  
     199A      6.528393   200A      6.542944   201A      6.591199  
     202A      6.891662   203A      6.895941   204A     23.595740  
     205A     23.807401   206A     23.974939   207A     50.003587  
     208A     50.025328   209A     66.887498   210A     66.898936  
     211A     66.946390  

    Final Occupation by Irrep:
              A 
    DOCC [    33 ]

  Energy converged.

  @DF-RKS Final Energy:  -567.27671223064578

   => Energetics <=

    Nuclear Repulsion Energy =            447.2165841421351047
    One-Electron Energy =               -1671.0213319090337336
    Two-Electron Energy =                 688.5771146314125417
    DFT Exchange-Correlation Energy =     -32.0490790951597688
    Empirical Dispersion Energy =           0.0000000000000000
    VV10 Nonlocal Energy =                  0.0000000000000000
    Total Energy =                       -567.2767122306457850



Properties will be evaluated at   0.000000,   0.000000,   0.000000 [a0]

Properties computed using the SCF density matrix

  Nuclear Dipole Moment: [e a0]
     X:     3.7041      Y:     6.9002      Z:   -10.7330

  Electronic Dipole Moment: [e a0]
     X:    -3.2637      Y:    -6.3006      Z:     9.9392

  Dipole Moment: [e a0]
     X:     0.4404      Y:     0.5997      Z:    -0.7937     Total:     1.0879

  Dipole Moment: [D]
     X:     1.1194      Y:     1.5242      Z:    -2.0175     Total:     2.7652


*** tstop() called on localhost.localdomain at Tue Mar 19 13:07:00 2019
Module time:
	user time   =     208.77 seconds =       3.48 minutes
[...]
                          Rob Parrish, Justin Turney,                
                       Andy Simmonett, and Alex Sokolov              
         ------------------------------------------------------------

  ==> Geometry <==

    Molecular point group: c1
    Full point group: C1

    Geometry (in Angstrom), charge = 0, multiplicity = 1:

       Center              X                  Y                   Z               Mass       
    ------------   -----------------  -----------------  -----------------  -----------------
         C            0.278652391306    -0.089093077077    -0.688293008697    12.000000000000
         O           -0.710858745549    -0.406499538913    -1.611972672872    15.994914619560
         F            0.732757088300    -0.128924077053     1.639612965492    18.998403224000
         F           -1.319992614718     0.186478222193     1.028152238986    18.998403224000
         H            1.466441442247     2.762483274079    -1.682439650789     1.007825032070
         C            1.297003740899     1.696098243912    -1.809403645148    12.000000000000
         H            0.712725011466     1.519173027259    -2.715010809027     1.007825032070
         H            2.259829501749     1.180419598126    -1.886859601397     1.007825032070
         O            0.593871558093     1.256603672987    -0.656730016244    15.994914619560
         H           -1.504689003211     0.095200516149    -1.388709680420     1.007825032070
         C           -0.179567266718    -0.449535499301     0.725636410355    12.000000000000
         F           -0.412549158961    -1.761412662521     0.818316632390    18.998403224000
         H            1.146209157445    -0.711582032379    -0.937164964131     1.007825032070

  Nuclear repulsion =  447.720744152161444

  ==> Basis Set <==

  Basis Set: 6-311++G(D,P)
    Blend: 6-311++G(D,P)
    Number of shells: 105
    Number of basis function: 211
    Number of Cartesian functions: 219
    Spherical Harmonics?: true
    Max angular momentum: 2

  ==> DFJKGrad: Density-Fitted SCF Gradients <==

    Gradient:                    1
    J tasked:                  Yes
    K tasked:                  Yes
    wK tasked:                  No
    OpenMP threads:             16
    Integrals threads:          16
    Memory (MB):               375
    Schwarz Cutoff:          0E+00
    Fitting Condition:       1E-12

   => Auxiliary Basis Set <=

  Basis Set: (6-311++G(D,P) AUX)
    Blend: AUG-CC-PVTZ-JKFIT
    Number of shells: 310
    Number of basis function: 1062
    Number of Cartesian functions: 1323
    Spherical Harmonics?: true
    Max angular momentum: 4

  ==> DFT Potential <==

   => Composite Functional: M06-2X <= 

    Hybrid M06-2X Meta-GGA XC Functional

    Y. Zhao and D. G. Truhlar,  Theor. Chem. Acc., 120, 215, 2008


    Deriv               =              1
    GGA                 =           TRUE
    Meta                =           TRUE

    Exchange Hybrid     =           TRUE
    MP2 Hybrid          =          FALSE

   => Exchange Functionals <=

    1.0000   XC_HYB_MGGA_X_M06_2X

   => Exact (HF) Exchange <=

    0.5400               HF 

   => Correlation Functionals <=

    1.0000   XC_MGGA_C_M06_2X

   => Molecular Quadrature <=

    Radial Scheme       =       TREUTLER
    Pruning Scheme      =           FLAT
    Nuclear Scheme      =       TREUTLER

    BS radius alpha     =              1
    Pruning alpha       =              1
    Radial Points       =             75
    Spherical Points    =            302
    Total Points        =         294450
    Total Blocks        =           2259
    Max Points          =            256
    Max Functions       =            196


  -Total Gradient:
     Atom            X                  Y                   Z
    ------   -----------------  -----------------  -----------------
       1        0.000048993711     0.000042153174     0.000117054219
       2       -0.000059524667    -0.000016832274    -0.000016953990
       3       -0.000002669369     0.000028778604     0.000038092072
       4       -0.000034576483    -0.000020002384    -0.000041694819
       5       -0.000034291172    -0.000041902753     0.000034464582
       6       -0.000000675321     0.000021691490    -0.000023301632
       7        0.000036842288     0.000009520355     0.000057939051
       8       -0.000042476322     0.000027119709     0.000031715499
       9       -0.000083103595    -0.000128305151     0.000066678052
      10       -0.000027200555    -0.000015722582    -0.000027447492
      11        0.000014272946     0.000162606080    -0.000109901862
      12       -0.000041752208    -0.000160577378    -0.000050065182
      13        0.000001826350    -0.000003395884     0.000031342781


*** tstop() called on localhost.localdomain at Tue Mar 19 13:10:26 2019
Module time:
	user time   =      75.36 seconds =       1.26 minutes
	system time =       2.90 seconds =       0.05 minutes
	total time  =          6 seconds =       0.10 minutes
Total time:
	user time   =    3527.65 seconds =      58.79 minutes
	system time =     134.07 seconds =       2.23 minutes
	total time  =        261 seconds =       4.35 minutes

			-----------------------------------------
			 OPTKING 2.0: for geometry optimizations 
			  - R.A. King,  Bethel University        
			-----------------------------------------

	Previous internal coordinate definitions found.
	---Fragment 1 Geometry and Gradient---
	 C           0.5265767058       -0.1683615160       -1.3006852856
	 O          -1.3433283483       -0.7681728017       -3.0461868854
	 F           1.3847102188       -0.2436311976        3.0984194687
	 F          -2.4944245392        0.3523927697        1.9429261546
	 H           2.7711727158        5.2203368347       -3.1793501751
	 C           2.4509818636        3.2051611755       -3.4192773532
	 H           1.3468550797        2.8708209700       -5.1306268769
	 H           4.2704588653        2.2306697623       -3.5656478978
	 O           1.1222546029        2.3746367995       -1.2410398739
	 H          -2.8434501312        0.1799029032       -2.6242809741
	 C          -0.3393329565       -0.8494989807        1.3712540876
	 F          -0.7796049268       -3.3285875392        1.5463943252
	 H           2.1660213986       -1.3446951623       -1.7709851235
	             0.0000489937        0.0000421532        0.0001170542
	            -0.0000595247       -0.0000168323       -0.0000169540
	            -0.0000026694        0.0000287786        0.0000380921
	            -0.0000345765       -0.0000200024       -0.0000416948
	            -0.0000342912       -0.0000419028        0.0000344646
	            -0.0000006753        0.0000216915       -0.0000233016
	             0.0000368423        0.0000095204        0.0000579391
	            -0.0000424763        0.0000271197        0.0000317155
	            -0.0000831036       -0.0001283052        0.0000666781
	            -0.0000272006       -0.0000157226       -0.0000274475
	             0.0000142729        0.0001626061       -0.0001099019
	            -0.0000417522       -0.0001605774       -0.0000500652
	             0.0000018263       -0.0000033959        0.0000313428

	---Fragment 1 Intrafragment Coordinates---
	 - Coordinate -           - BOHR/RAD -       - ANG/DEG -
	 R(1,2)           =         2.627374	       1.390346
	 R(1,9)           =         2.612514	       1.382483
	 R(1,11)          =         2.890157	       1.529405
	 R(1,13)          =         2.071888	       1.096396
	 R(2,10)          =         1.824066	       0.965254
	 R(3,11)          =         2.514458	       1.330594
	 R(4,11)          =         2.532938	       1.340373
	 R(5,6)           =         2.054512	       1.087201
	 R(6,7)           =         2.063879	       1.092158
	 R(6,8)           =         2.069192	       1.094969
	 R(6,9)           =         2.683283	       1.419932
	 R(11,12)         =         2.523964	       1.335624
	 B(1,2,10)        =         1.889131	     108.239206
	 B(1,9,6)         =         1.977578	     113.306895
	 B(1,11,3)        =         1.952841	     111.889524
	 B(1,11,4)        =         1.930224	     110.593702
	 B(1,11,12)       =         1.926125	     110.358844
	 B(2,1,9)         =         1.981943	     113.556965
	 B(2,1,11)        =         1.925335	     110.313577
	 B(2,1,13)        =         1.857443	     106.423671
	 B(3,11,4)        =         1.890209	     108.300985
	 B(3,11,12)       =         1.884526	     107.975373
	 B(4,11,12)       =         1.877578	     107.577278
	 B(5,6,7)         =         1.916759	     109.822210
	 B(5,6,8)         =         1.910446	     109.460498
	 B(5,6,9)         =         1.860810	     106.616563
	 B(7,6,8)         =         1.912897	     109.600911
	 B(7,6,9)         =         1.936993	     110.981533
	 B(8,6,9)         =         1.925255	     110.308961
	 B(9,1,11)        =         1.851061	     106.057990
	 B(9,1,13)        =         1.957799	     112.173637
	 B(11,1,13)       =         1.889271	     108.247258
	 D(1,9,6,5)       =         3.118476	     178.675520
	 D(1,9,6,7)       =         1.031621	      59.107531
	 D(1,9,6,8)       =        -1.091928	     -62.562849
	 D(2,1,9,6)       =        -1.238849	     -70.980794
	 D(2,1,11,3)      =        -3.115543	    -178.507467
	 D(2,1,11,4)      =        -1.006679	     -57.678437
	 D(2,1,11,12)     =         1.068807	      61.238119
	 D(3,11,1,9)      =        -0.962357	     -55.138973
	 D(3,11,1,13)     =         1.141805	      65.420594
	 D(4,11,1,9)      =         1.146508	      65.690058
	 D(4,11,1,13)     =        -3.032516	    -173.750375
	 D(6,9,1,11)      =         2.927166	     167.714241
	 D(6,9,1,13)      =         0.868025	      49.734171
	 D(9,1,2,10)      =        -1.029228	     -58.970422
	 D(9,1,11,12)     =        -3.061192	    -175.393386
	 D(10,2,1,11)     =         1.045836	      59.921994
	 D(10,2,1,13)     =         3.091480	     177.128755
	 D(12,11,1,13)    =        -0.957031	     -54.833819

	Current energy   :      -567.2789460523

	Energy change for the previous step:
		Projected    :         0.0000057392
		Actual       :        -0.0000069323

	Performing BFGS update.
	Previous computed or guess Hessian on step 1.
	Steps to be used in Hessian update: 10 9
	Taking RFO optimization step.
	Going to follow RFO solution 1.
	Using RFO vector 1.
	Norm of target step-size    0.00329
	Projected energy change by RFO approximation:        -0.0000004544

	Back-transformation to cartesian coordinates...
	Could not converge backtransformation.
	Using first guess instead.

	--- Internal Coordinate Step in ANG or DEG, aJ/ANG or AJ/DEG ---
	 ---------------------------------------------------------------------------
	   Coordinate                Previous        Force       Change         New 
	   ----------                --------       ------       ------       ------
	    1 R(1,2)          =      1.390346    -0.000588    -0.000087     1.390260
	    2 R(1,9)          =      1.382483     0.001153     0.000137     1.382620
	    3 R(1,11)         =      1.529405     0.001475     0.000295     1.529700
	    4 R(1,13)         =      1.096396    -0.000031    -0.000013     1.096383
	    5 R(2,10)         =      0.965254    -0.000145    -0.000024     0.965230
	    6 R(3,11)         =      1.330594    -0.000461    -0.000066     1.330528
	    7 R(4,11)         =      1.340373     0.000048    -0.000010     1.340363
	    8 R(5,6)          =      1.087201     0.000394     0.000059     1.087260
	    9 R(6,7)          =      1.092158     0.000452     0.000081     1.092239
	   10 R(6,8)          =      1.094969     0.000299     0.000052     1.095021
	   11 R(6,9)          =      1.419932    -0.000063    -0.000024     1.419908
	   12 R(11,12)        =      1.335624    -0.001156    -0.000150     1.335474
	   13 B(1,2,10)       =    108.239206    -0.000002    -0.010278   108.228927
	   14 B(1,9,6)        =    113.306895     0.000001    -0.005273   113.301622
	   15 B(1,11,3)       =    111.889524     0.000001    -0.006243   111.883281
	   16 B(1,11,4)       =    110.593702     0.000003     0.009179   110.602881
	   17 B(1,11,12)      =    110.358844     0.000006     0.016487   110.375331
	   18 B(2,1,9)        =    113.556965    -0.000002    -0.001671   113.555295
	   19 B(2,1,11)       =    110.313577     0.000001     0.010146   110.323723
	   20 B(2,1,13)       =    106.423671    -0.000001    -0.015803   106.407868
	   21 B(3,11,4)       =    108.300985    -0.000002    -0.001670   108.299316
	   22 B(3,11,12)      =    107.975373    -0.000004    -0.014837   107.960536
	   23 B(4,11,12)      =    107.577278    -0.000003    -0.003682   107.573596
	   24 B(5,6,7)        =    109.822210    -0.000000    -0.000716   109.821494
	   25 B(5,6,8)        =    109.460498    -0.000000    -0.000157   109.460342
	   26 B(5,6,9)        =    106.616563     0.000001     0.001961   106.618523
	   27 B(7,6,8)        =    109.600911     0.000001     0.005600   109.606511
	   28 B(7,6,9)        =    110.981533    -0.000001    -0.006831   110.974702
	   29 B(8,6,9)        =    110.308961    -0.000000     0.000036   110.308998
	   30 B(9,1,11)       =    106.057990     0.000004     0.018351   106.076341
	   31 B(9,1,13)       =    112.173637    -0.000001    -0.009078   112.164558
	   32 B(11,1,13)      =    108.247258    -0.000000    -0.001470   108.245788
	   33 D(1,9,6,5)      =    178.675520    -0.000000    -0.053384   178.622136
	   34 D(1,9,6,7)      =     59.107531    -0.000000    -0.049885    59.057647
	   35 D(1,9,6,8)      =    -62.562849    -0.000000    -0.052402   -62.615251
	   36 D(2,1,9,6)      =    -70.980794     0.000001     0.021759   -70.959034
	   37 D(2,1,11,3)     =   -178.507467    -0.000000    -0.063459  -178.570926
	   38 D(2,1,11,4)     =    -57.678437    -0.000000    -0.063460   -57.741897
	   39 D(2,1,11,12)    =     61.238119    -0.000000    -0.051769    61.186350
	   40 D(3,11,1,9)     =    -55.138973    -0.000000    -0.047901   -55.186873
	   41 D(3,11,1,13)    =     65.420594    -0.000000    -0.049230    65.371364
	   42 D(4,11,1,9)     =     65.690058    -0.000000    -0.047902    65.642156
	   43 D(4,11,1,13)    =   -173.750375    -0.000000    -0.049231  -173.799606
	   44 D(6,9,1,11)     =    167.714241    -0.000000    -0.002459   167.711781
	   45 D(6,9,1,13)     =     49.734171    -0.000000    -0.007032    49.727140
	   46 D(9,1,2,10)     =    -58.970422    -0.000001    -0.016321   -58.986743
	   47 D(9,1,11,12)    =   -175.393386     0.000000    -0.036211  -175.429597
	   48 D(10,2,1,11)    =     59.921994     0.000000     0.013132    59.935125
	   49 D(10,2,1,13)    =    177.128755     0.000000     0.007706   177.136461
	   50 D(12,11,1,13)   =    -54.833819     0.000000    -0.037540   -54.871359
	 ---------------------------------------------------------------------------
	Successfully symmetrized geometry.

  ==> Convergence Check <==

  Measures of convergence in internal coordinates in au.
  Criteria marked as inactive (o), active & met (*), and active & unmet ( ).
  ---------------------------------------------------------------------------------------------
   Step     Total Energy     Delta E     MAX Force     RMS Force      MAX Disp      RMS Disp   
  ---------------------------------------------------------------------------------------------
    Convergence Criteria    1.00e-06 *    3.00e-04 *             o    1.20e-03 *             o
  ---------------------------------------------------------------------------------------------
     11    -567.27894605   -6.93e-06      1.79e-04 *    4.65e-05 o    1.11e-03 *    4.65e-04 o  ~
  ---------------------------------------------------------------------------------------------


  **** Optimization is complete! (in 11 steps) ****

  ==> Optimization Summary <==

  Measures of convergence in internal coordinates in au.
  --------------------------------------------------------------------------------------------------------------- ~
   Step         Total Energy             Delta E       MAX Force       RMS Force        MAX Disp        RMS Disp  ~
  --------------------------------------------------------------------------------------------------------------- ~
      1    -567.275692428127   -567.275692428127      0.00377834      0.00114954      0.17898655      0.05451219  ~
      2    -567.275583481501      0.000108946626      0.01380867      0.00332478      0.08168461      0.02450064  ~
      3    -567.276712230646     -0.001128749145      0.00295565      0.00096033      0.27346630      0.07108034  ~
      4    -567.277708828578     -0.000996597932      0.00961115      0.00211293      0.26870956      0.07091754  ~
      5    -567.277429841319      0.000278987259      0.01526092      0.00415009      0.08732528      0.02869015  ~
      6    -567.278473769145     -0.001043927826      0.00793379      0.00196873      0.11932616      0.03561934  ~
      7    -567.278764680191     -0.000290911045      0.00564310      0.00119129      0.07095733      0.03166563  ~
      8    -567.278910505268     -0.000145825078      0.00269054      0.00064925      0.10772178      0.04729149  ~
      9    -567.278733559044      0.000176946224      0.00434863      0.00137763      0.06527879      0.02967432  ~
     10    -567.278939119989     -0.000205560945      0.00121665      0.00028887      0.00707550      0.00291121  ~
     11    -567.278946052302     -0.000006932313      0.00017906      0.00004649      0.00110759      0.00046461  ~
  --------------------------------------------------------------------------------------------------------------- ~

	Writing optimization data to binary file.
	Final energy is   -567.2789460523018
	Final (previous) structure:
	Cartesian Geometry (in Angstrom)
	    C     0.2786523913  -0.0890930771  -0.6882930087
	    O    -0.7108587455  -0.4064995389  -1.6119726729
	    F     0.7327570883  -0.1289240771   1.6396129655
	    F    -1.3199926147   0.1864782222   1.0281522390
	    H     1.4664414422   2.7624832741  -1.6824396508
	    C     1.2970037409   1.6960982439  -1.8094036451
	    H     0.7127250115   1.5191730273  -2.7150108090
	    H     2.2598295017   1.1804195981  -1.8868596014
	    O     0.5938715581   1.2566036730  -0.6567300162
	    H    -1.5046890032   0.0952005161  -1.3887096804
	    C    -0.1795672667  -0.4495354993   0.7256364104
	    F    -0.4125491590  -1.7614126625   0.8183166324
	    H     1.1462091574  -0.7115820324  -0.9371649641
	Saving final (previous) structure.
	Removing binary optimization data file.
			--------------------------
			 OPTKING Finished Execution 
			--------------------------

    Final optimized geometry and variables:
    Molecular point group: c1
    Full point group: C1

    Geometry (in Angstrom), charge = 0, multiplicity = 1:

    C            0.278652391306    -0.089093077077    -0.688293008697
    O           -0.710858745549    -0.406499538913    -1.611972672872
    F            0.732757088300    -0.128924077053     1.639612965492
    F           -1.319992614718     0.186478222193     1.028152238986
    H            1.466441442247     2.762483274079    -1.682439650789
    C            1.297003740899     1.696098243912    -1.809403645148
    H            0.712725011466     1.519173027259    -2.715010809027
    H            2.259829501749     1.180419598126    -1.886859601397
    O            0.593871558093     1.256603672987    -0.656730016244
    H           -1.504689003211     0.095200516149    -1.388709680420
    C           -0.179567266718    -0.449535499301     0.725636410355
    F           -0.412549158961    -1.761412662521     0.818316632390
    H            1.146209157445    -0.711582032379    -0.937164964131

	Removing binary optimization data file.
	Cleaning optimization helper files.

    Psi4 stopped on: Tuesday, 19 March 2019 01:10PM
    Psi4 wall time for execution: 0:04:21.39

*** Psi4 exiting successfully. Buy a developer a beer!
