
Host: DESKTOP-1OTU84N

Timers On : Fri Oct 25 12:59:51 2019
Timers Off: Fri Oct 25 12:59:53 2019

Wall Time:        1.66 seconds

                                                       Time (seconds)
Module                                       User      System        Wall        Calls

--------------------------------------------------------------------------------------

**************************************************************************************

Host: DESKTOP-1OTU84N

Timers On : Fri Oct 25 13:00:13 2019
Timers Off: Fri Oct 25 13:00:15 2019

Wall Time:        1.69 seconds

                                                       Time (seconds)
Module                                       User      System        Wall        Calls

--------------------------------------------------------------------------------------

**************************************************************************************

Host: DESKTOP-1OTU84N

Timers On : Fri Oct 25 13:00:35 2019
Timers Off: Fri Oct 25 13:00:36 2019

Wall Time:        1.51 seconds

                                                       Time (seconds)
Module                                       User      System        Wall        Calls

--------------------------------------------------------------------------------------

**************************************************************************************

Host: DESKTOP-1OTU84N

Timers On : Fri Oct 25 13:00:57 2019
Timers Off: Fri Oct 25 13:00:58 2019

Wall Time:        1.53 seconds

                                                       Time (seconds)
Module                                       User      System        Wall        Calls

--------------------------------------------------------------------------------------

**************************************************************************************

Host: DESKTOP-1OTU84N

Timers On : Fri Oct 25 13:01:46 2019
Timers Off: Fri Oct 25 13:01:48 2019

Wall Time:        1.90 seconds

                                                       Time (seconds)
Module                                       User      System        Wall        Calls

--------------------------------------------------------------------------------------

**************************************************************************************

Host: DESKTOP-1OTU84N

Timers On : Fri Oct 25 13:14:58 2019
Timers Off: Fri Oct 25 13:15:00 2019

Wall Time:        1.67 seconds

                                                       Time (seconds)
Module                                       User      System        Wall        Calls

--------------------------------------------------------------------------------------

**************************************************************************************

Host: DESKTOP-1OTU84N

Timers On : Fri Oct 25 13:15:19 2019
Timers Off: Fri Oct 25 13:15:21 2019

Wall Time:        1.94 seconds

                                                       Time (seconds)
Module                                       User      System        Wall        Calls

--------------------------------------------------------------------------------------

**************************************************************************************

Host: DESKTOP-1OTU84N

Timers On : Fri Oct 25 13:26:58 2019
Timers Off: Fri Oct 25 13:27:00 2019

Wall Time:        1.85 seconds

                                                       Time (seconds)
Module                                       User      System        Wall        Calls

--------------------------------------------------------------------------------------

**************************************************************************************

Host: DESKTOP-1OTU84N

Timers On : Fri Oct 25 13:51:21 2019
Timers Off: Fri Oct 25 13:51:23 2019

Wall Time:        1.96 seconds

                                                       Time (seconds)
Module                                       User      System        Wall        Calls

--------------------------------------------------------------------------------------

**************************************************************************************
