
    -----------------------------------------------------------------------
          Psi4: An Open-Source Ab Initio Electronic Structure Package
                               Psi4 1.2.1 release

                         Git: Rev {HEAD} 406f4de 


    R. M. Parrish, L. A. Burns, D. G. A. Smith, A. C. Simmonett,
    A. E. DePrince III, E. G. Hohenstein, U. Bozkaya, A. Yu. Sokolov,
    R. Di Remigio, R. M. Richard, J. F. Gonthier, A. M. James,
    H. R. McAlexander, A. Kumar, M. Saitow, X. Wang, B. P. Pritchard,
    P. Verma, H. F. Schaefer III, K. Patkowski, R. A. King, E. F. Valeev,
    F. A. Evangelista, J. M. Turney, T. D. Crawford, and C. D. Sherrill,
    J. Chem. Theory Comput. 13(7) pp 3185--3197 (2017).
    (doi: 10.1021/acs.jctc.7b00174)


                         Additional Contributions by
    P. Kraus, H. Kruse, M. H. Lechner, M. C. Schieber, and R. A. Shaw

    -----------------------------------------------------------------------


    Psi4 started on: Thursday, 17 January 2019 01:34PM

    Process ID: 12720
    Host:       localhost.localdomain
    PSIDATADIR: /root/psi4conda/share/psi4
    Memory:     500.0 MiB
    Threads:    1
    
  ==> Input File <==

--------------------------------------------------------------------------
molecule{
0 1
    C           -0.064334101430    -0.457791213697    -0.356670048778
    O           -1.107129262530    -0.418350932437    -1.096448944097
    O            0.286593796915     1.078860683052    -0.494633598756
    H           -0.658542998030     0.858251152049    -1.109211539717
    H            1.484332970116     2.472826155599    -1.382887064918
    C            1.508237731565     1.407488678664    -1.165477269037
    H            1.602975870829     0.832988450692    -2.090359030448
    H            2.334711078196     1.187474028879    -0.491665036383
    CL          -0.281533372877    -0.753183103608     1.415153812771
    H            0.835163730647    -1.008739988353    -0.652375260349 
}

set{
   basis 6-311++G(d,p)
   freeze_core True
   normal_modes_write True
}


set_num_threads(16)
frequencies('m06-2x')
--------------------------------------------------------------------------
  Threads set to 16 by Python driver.
gradient() will perform analytic gradient computation.

*** tstart() called on localhost.localdomain
*** at Thu Jan 17 13:34:36 2019

   => Loading Basis Set <=

    Name: 6-311++G(D,P)
    Role: ORBITAL
    Keyword: BASIS
    atoms 1, 6         entry C          line   119 file /root/psi4conda/share/psi4/basis/6-311ppg_d_p_.gbs 
    atoms 2-3          entry O          line   161 file /root/psi4conda/share/psi4/basis/6-311ppg_d_p_.gbs 
    atoms 4-5, 7-8, 10 entry H          line    42 file /root/psi4conda/share/psi4/basis/6-311ppg_d_p_.gbs 
    atoms 9            entry CL         line   458 file /root/psi4conda/share/psi4/basis/6-311ppg_d_p_.gbs 


         ---------------------------------------------------------
                                   SCF
            by Justin Turney, Rob Parrish, Andy Simmonett
                             and Daniel Smith
                              RKS Reference
                       16 Threads,    500 MiB Core
         ---------------------------------------------------------

  ==> Geometry <==

    Molecular point group: c1
    Full point group: C1

    Geometry (in Angstrom), charge = 0, multiplicity = 1:

       Center              X                  Y                   Z               Mass       
    ------------   -----------------  -----------------  -----------------  -----------------
         C           -0.064334101430    -0.457791213697    -0.356670048778    12.000000000000
         O           -1.107129262530    -0.418350932437    -1.096448944097    15.994914619560
         O            0.286593796915     1.078860683052    -0.494633598756    15.994914619560
         H           -0.658542998030     0.858251152049    -1.109211539717     1.007825032070
         H            1.484332970116     2.472826155599    -1.382887064918     1.007825032070
         C            1.508237731565     1.407488678664    -1.165477269037    12.000000000000
         H            1.602975870829     0.832988450692    -2.090359030448     1.007825032070
         H            2.334711078196     1.187474028879    -0.491665036383     1.007825032070
         CL          -0.281533372877    -0.753183103608     1.415153812771    34.968852682000
         H            0.835163730647    -1.008739988353    -0.652375260349     1.007825032070

  Running in c1 symmetry.

  Rotational constants: A =      0.22762  B =      0.08610  C =      0.06776 [cm^-1]
  Rotational constants: A =   6823.82092  B =   2581.25728  C =   2031.38581 [MHz]
  Nuclear repulsion =  237.884368684935680

  Charge       = 0
  Multiplicity = 1
  Electrons    = 50
  Nalpha       = 25
  Nbeta        = 25

  ==> Algorithm <==

  SCF Algorithm Type is DF.
  DIIS enabled.
  MOM disabled.
  Fractional occupation disabled.
  Guess Type is SAD.
  Energy threshold   = 1.00e-08
  Density threshold  = 1.00e-08
  Integral threshold = 0.00e+00

  ==> Primary Basis <==

  Basis Set: 6-311++G(D,P)
    Blend: 6-311++G(D,P)
    Number of shells: 79
    Number of basis function: 153
    Number of Cartesian functions: 158
    Spherical Harmonics?: true
    Max angular momentum: 2

  ==> DFT Potential <==

   => Composite Functional: M06-2X <= 

    Hybrid M06-2X Meta-GGA XC Functional

    Y. Zhao and D. G. Truhlar,  Theor. Chem. Acc., 120, 215, 2008


    Deriv               =              1
    GGA                 =           TRUE
    Meta                =           TRUE

    Exchange Hybrid     =           TRUE
    MP2 Hybrid          =          FALSE

   => Exchange Functionals <=

    1.0000   XC_HYB_MGGA_X_M06_2X

   => Exact (HF) Exchange <=

    0.5400               HF 

   => Correlation Functionals <=

    1.0000   XC_MGGA_C_M06_2X

   => Molecular Quadrature <=

    Radial Scheme       =       TREUTLER
    Pruning Scheme      =           FLAT
    Nuclear Scheme      =       TREUTLER

    BS radius alpha     =              1
    Pruning alpha       =              1
    Radial Points       =             75
    Spherical Points    =            302
    Total Points        =         226364
    Total Blocks        =           1750
    Max Points          =            256
    Max Functions       =            150

   => Loading Basis Set <=

    Name: (6-311++G(D,P) AUX)
    Role: JKFIT
    Keyword: DF_BASIS_SCF
    atoms 1, 6         entry C          line   162 file /root/psi4conda/share/psi4/basis/aug-cc-pvtz-jkfit.gbs 
    atoms 2-3          entry O          line   286 file /root/psi4conda/share/psi4/basis/aug-cc-pvtz-jkfit.gbs 
    atoms 4-5, 7-8, 10 entry H          line    70 file /root/psi4conda/share/psi4/basis/aug-cc-pvtz-jkfit.gbs 
    atoms 9            entry CL         line   816 file /root/psi4conda/share/psi4/basis/aug-cc-pvtz-jkfit.gbs 

  ==> Pre-Iterations <==

   -------------------------------------------------------
    Irrep   Nso     Nmo     Nalpha   Nbeta   Ndocc  Nsocc
   -------------------------------------------------------
     A        153     153       0       0       0       0
   -------------------------------------------------------
    Total     153     153      25      25      25       0
   -------------------------------------------------------

  ==> Integral Setup <==

  DFHelper Memory: AOs need 0.176 [GiB]; user supplied 0.366 [GiB]. Using in-core AOs.

  ==> MemDFJK: Density-Fitted J/K Matrices <==

    J tasked:                   Yes
    K tasked:                   Yes
    wK tasked:                   No
    OpenMP threads:              16
    Memory (MB):                375
    Algorithm:                 Core
    Schwarz Cutoff:           1E-12
    Mask sparsity (%):       3.4346
    Fitting Condition:        1E-12

   => Auxiliary Basis Set <=

  Basis Set: (6-311++G(D,P) AUX)
    Blend: AUG-CC-PVTZ-JKFIT
    Number of shells: 232
    Number of basis function: 792
    Number of Cartesian functions: 979
    Spherical Harmonics?: true
    Max angular momentum: 4

  Minimum eigenvalue in the overlap matrix is 2.0308851584E-04.
  Using Symmetric Orthogonalization.

  SCF Guess: Superposition of Atomic Densities via on-the-fly atomic UHF.

  ==> Iterations <==

                           Total Energy        Delta E     RMS |[F,P]|

   @DF-RKS iter   0:  -690.76869978631646   -6.90769e+02   7.95662e-02 
   @DF-RKS iter   1:  -689.68909165912169    1.07961e+00   9.39978e-03 
   @DF-RKS iter   2:  -689.68682060574918    2.27105e-03   1.05375e-02 DIIS
   @DF-RKS iter   3:  -689.75509547791205   -6.82749e-02   1.96238e-03 DIIS
   @DF-RKS iter   4:  -689.75715936599647   -2.06389e-03   8.02684e-04 DIIS
   @DF-RKS iter   5:  -689.75750808270038   -3.48717e-04   2.80196e-04 DIIS
   @DF-RKS iter   6:  -689.75756541365649   -5.73310e-05   6.90013e-05 DIIS
   @DF-RKS iter   7:  -689.75756918651211   -3.77286e-06   1.30489e-05 DIIS
   @DF-RKS iter   8:  -689.75756950510743   -3.18595e-07   6.80643e-06 DIIS
   @DF-RKS iter   9:  -689.75756955444831   -4.93409e-08   1.75636e-06 DIIS
   @DF-RKS iter  10:  -689.75756955819134   -3.74303e-09   5.50012e-07 DIIS
   @DF-RKS iter  11:  -689.75756955857025   -3.78918e-10   1.34539e-07 DIIS
   @DF-RKS iter  12:  -689.75756955860629   -3.60387e-11   3.26408e-08 DIIS
   @DF-RKS iter  13:  -689.75756955860936   -3.06954e-12   6.92943e-09 DIIS

  ==> Post-Iterations <==

    Orbital Energies [Eh]
    ---------------------

    Doubly Occupied:                                                      

       1A   -102.662571     2A    -19.714216     3A    -19.609995  
       4A    -10.719390     5A    -10.630895     6A     -9.805504  
       7A     -7.530161     8A     -7.523993     9A     -7.523811  
      10A     -1.264149    11A     -1.140789    12A     -0.937548  
      13A     -0.843079    14A     -0.734525    15A     -0.660788  
      16A     -0.603716    17A     -0.583858    18A     -0.539299  
      19A     -0.520365    20A     -0.479175    21A     -0.470080  
      22A     -0.389321    23A     -0.374884    24A     -0.365153  
      25A     -0.350694  

    Virtual:                                                              

      26A     -0.013892    27A      0.008778    28A      0.017373  
      29A      0.021960    30A      0.039272    31A      0.050343  
      32A      0.056865    33A      0.065683    34A      0.076709  
      35A      0.081166    36A      0.096675    37A      0.110866  
      38A      0.116530    39A      0.117790    40A      0.127529  
      41A      0.131295    42A      0.133336    43A      0.147043  
      44A      0.178980    45A      0.184046    46A      0.202750  
      47A      0.212476    48A      0.215865    49A      0.229230  
      50A      0.249910    51A      0.267536    52A      0.281013  
      53A      0.302588    54A      0.311753    55A      0.316173  
      56A      0.328968    57A      0.339817    58A      0.394136  
      59A      0.413299    60A      0.448631    61A      0.456758  
      62A      0.476146    63A      0.486556    64A      0.520936  
      65A      0.536070    66A      0.555031    67A      0.590732  
      68A      0.602415    69A      0.640840    70A      0.659270  
      71A      0.685945    72A      0.690487    73A      0.708273  
      74A      0.872128    75A      0.934486    76A      0.938932  
      77A      0.962381    78A      0.968881    79A      0.985501  
      80A      1.018341    81A      1.038189    82A      1.051185  
      83A      1.130227    84A      1.162990    85A      1.189381  
      86A      1.214665    87A      1.246370    88A      1.257828  
      89A      1.276375    90A      1.355406    91A      1.381574  
      92A      1.449259    93A      1.489660    94A      1.537402  
      95A      1.548816    96A      1.582886    97A      1.634454  
      98A      1.676348    99A      1.680782   100A      1.711401  
     101A      1.747746   102A      1.774099   103A      1.808727  
     104A      1.838790   105A      1.948569   106A      2.022693  
     107A      2.038855   108A      2.098831   109A      2.142959  
     110A      2.220562   111A      2.323605   112A      2.384733  
     113A      2.426060   114A      2.456899   115A      2.475848  
     116A      2.507859   117A      2.527979   118A      2.558990  
     119A      2.598089   120A      2.683604   121A      2.730129  
     122A      2.777935   123A      2.877089   124A      2.899990  
     125A      2.974795   126A      3.088452   127A      3.106277  
     128A      3.186744   129A      3.233558   130A      3.396830  
     131A      3.449681   132A      3.546818   133A      3.716949  
     134A      3.805454   135A      3.815746   136A      3.961189  
     137A      4.006266   138A      4.097610   139A      5.193789  
     140A      5.210583   141A      5.250273   142A      5.295038  
     143A      5.611868   144A      5.730525   145A      9.919178  
     146A     23.783817   147A     23.948255   148A     25.990679  
     149A     26.020622   150A     26.532670   151A     49.950529  
     152A     50.089382   153A    216.011468  

    Final Occupation by Irrep:
              A 
    DOCC [    25 ]

  Energy converged.

  @DF-RKS Final Energy:  -689.75756955860936

   => Energetics <=

    Nuclear Repulsion Energy =            237.8843686849356800
    One-Electron Energy =               -1420.6784209517309137
    Two-Electron Energy =                 520.7739242522806080
    DFT Exchange-Correlation Energy =     -27.7374415440947573
    Empirical Dispersion Energy =           0.0000000000000000
    VV10 Nonlocal Energy =                  0.0000000000000000
    Total Energy =                       -689.7575695586093616



Properties will be evaluated at   0.000000,   0.000000,   0.000000 [a0]

Properties computed using the SCF density matrix

  Nuclear Dipole Moment: [e a0]
     X:     5.5023      Y:     4.7639      Z:    -6.6715

  Electronic Dipole Moment: [e a0]
     X:    -3.9306      Y:    -3.8373      Z:     5.9088

  Dipole Moment: [e a0]
     X:     1.5717      Y:     0.9266      Z:    -0.7627     Total:     1.9775

  Dipole Moment: [D]
     X:     3.9948      Y:     2.3552      Z:    -1.9386     Total:     5.0263


*** tstop() called on localhost.localdomain at Thu Jan 17 13:34:46 2019
Module time:
	user time   =     136.60 seconds =       2.28 minutes
	system time =       2.82 seconds =       0.05 minutes
	total time  =         10 seconds =       0.17 minutes
Total time:
	user time   =     136.60 seconds =       2.28 minutes
	system time =       2.82 seconds =       0.05 minutes
	total time  =         10 seconds =       0.17 minutes

*** tstart() called on localhost.localdomain
*** at Thu Jan 17 13:34:46 2019


         ------------------------------------------------------------
                                   SCF GRAD                          
                          Rob Parrish, Justin Turney,                
                       Andy Simmonett, and Alex Sokolov              
         ------------------------------------------------------------

  ==> Geometry <==

    Molecular point group: c1
    Full point group: C1

    Geometry (in Angstrom), charge = 0, multiplicity = 1:

       Center              X                  Y                   Z               Mass       
    ------------   -----------------  -----------------  -----------------  -----------------
         C           -0.064334101430    -0.457791213697    -0.356670048778    12.000000000000
         O           -1.107129262530    -0.418350932437    -1.096448944097    15.994914619560
         O            0.286593796915     1.078860683052    -0.494633598756    15.994914619560
         H           -0.658542998030     0.858251152049    -1.109211539717     1.007825032070
         H            1.484332970116     2.472826155599    -1.382887064918     1.007825032070
         C            1.508237731565     1.407488678664    -1.165477269037    12.000000000000
         H            1.602975870829     0.832988450692    -2.090359030448     1.007825032070
         H            2.334711078196     1.187474028879    -0.491665036383     1.007825032070
         CL          -0.281533372877    -0.753183103608     1.415153812771    34.968852682000
         H            0.835163730647    -1.008739988353    -0.652375260349     1.007825032070

  Nuclear repulsion =  237.884368684935680

  ==> Basis Set <==

  Basis Set: 6-311++G(D,P)
    Blend: 6-311++G(D,P)
    Number of shells: 79
    Number of basis function: 153
    Number of Cartesian functions: 158
    Spherical Harmonics?: true
    Max angular momentum: 2

  ==> DFJKGrad: Density-Fitted SCF Gradients <==

    Gradient:                    1
    J tasked:                  Yes
    K tasked:                  Yes
    wK tasked:                  No
    OpenMP threads:             16
    Integrals threads:          16
    Memory (MB):               375
    Schwarz Cutoff:          0E+00
    Fitting Condition:       1E-12

   => Auxiliary Basis Set <=

  Basis Set: (6-311++G(D,P) AUX)
    Blend: AUG-CC-PVTZ-JKFIT
    Number of shells: 232
    Number of basis function: 792
    Number of Cartesian functions: 979
    Spherical Harmonics?: true
    Max angular momentum: 4

  ==> DFT Potential <==

   => Composite Functional: M06-2X <= 

    Hybrid M06-2X Meta-GGA XC Functional

    Y. Zhao and D. G. Truhlar,  Theor. Chem. Acc., 120, 215, 2008


    Deriv               =              1
    GGA                 =           TRUE
    Meta                =           TRUE

    Exchange Hybrid     =           TRUE
    MP2 Hybrid          =          FALSE

   => Exchange Functionals <=

    1.0000   XC_HYB_MGGA_X_M06_2X

   => Exact (HF) Exchange <=

    0.5400               HF 

   => Correlation Functionals <=

    1.0000   XC_MGGA_C_M06_2X

   => Molecular Quadrature <=

    Radial Scheme       =       TREUTLER
    Pruning Scheme      =           FLAT
    Nuclear Scheme      =       TREUTLER

    BS radius alpha     =              1
    Pruning alpha       =              1
    Radial Points       =             75
    Spherical Points    =            302
    Total Points        =         226364
    Total Blocks        =           1750
    Max Points          =            256
    Max Functions       =            150


  -Total Gradient:
     Atom            X                  Y                   Z
    ------   -----------------  -----------------  -----------------
       1       -0.000085606448    -0.000094994095     0.000079226595
       2        0.000056004777    -0.000026649591     0.000084237437
       3        0.000056610030     0.000067871982     0.000012123023
       4       -0.000030235898    -0.000067245216     0.000074511458
       5       -0.000017136763    -0.000023376244    -0.000007632417
       6       -0.000056642824    -0.000038366173     0.000012453979
       7       -0.000013186920    -0.000024670487     0.000011134025
       8       -0.000002491313    -0.000002990624     0.000005484984
       9        0.000027458219     0.000029510644    -0.000062240218
      10        0.000008489842    -0.000017748578     0.000101281034


*** tstop() called on localhost.localdomain at Thu Jan 17 13:34:49 2019
Module time:
	user time   =      42.65 seconds =       0.71 minutes
	system time =       1.44 seconds =       0.02 minutes
	total time  =          3 seconds =       0.05 minutes
Total time:
	user time   =     179.27 seconds =       2.99 minutes
	system time =       4.26 seconds =       0.07 minutes
	total time  =         13 seconds =       0.22 minutes

  Based on options and gradient (rms=9.15E-05), recommend projecting translations and projecting rotations.
hessian() will perform frequency computation by finite difference of analytic gradients.

-------------------------------------------------------------

  Using finite-differences of gradients to determine vibrational frequencies and 
  normal modes.  Resulting frequencies are only valid at stationary points.
	Generating geometries for use with 3-point formula.
	Displacement size will be 5.00e-03.
	Number of atoms is 10.
	Number of irreps is 1.
	Number of SALCS is 24.
	Translations projected? 1. Rotations projected? 1.
	Index of salcs per irrep:
	 1 :  0  1  2  3  4  5  6  7  8  9  10  11  12  13  14  15  16  17  18  19  20  21  22  23 
	Number of SALC's per irrep:
		 Irrep 1: 24
	Number of geometries (including reference) is 49.
	Number of displacements per irrep:
	  Irrep 1: 48

  //>>>>>>>>>>>>>>>>>>>>>>>>>>>>>>>>>>>//
  //    Loading displacement 1 of 49   //
  //<<<<<<<<<<<<<<<<<<<<<<<<<<<<<<<<<<<//
gradient() will perform analytic gradient computation.

*** tstart() called on localhost.localdomain
*** at Thu Jan 17 13:34:49 2019

   => Loading Basis Set <=

    Name: 6-311++G(D,P)
    Role: ORBITAL
    Keyword: BASIS
    atoms 1, 6         entry C          line   119 file /root/psi4conda/share/psi4/basis/6-311ppg_d_p_.gbs 
    atoms 2-3          entry O          line   161 file /root/psi4conda/share/psi4/basis/6-311ppg_d_p_.gbs 
    atoms 4-5, 7-8, 10 entry H          line    42 file /root/psi4conda/share/psi4/basis/6-311ppg_d_p_.gbs 
    atoms 9            entry CL         line   458 file /root/psi4conda/share/psi4/basis/6-311ppg_d_p_.gbs 


         ---------------------------------------------------------
                                   SCF
            by Justin Turney, Rob Parrish, Andy Simmonett
                             and Daniel Smith
                              RKS Reference
                       16 Threads,    500 MiB Core
         ---------------------------------------------------------

  ==> Geometry <==

    Molecular point group: c1
    Full point group: C1

    Geometry (in Angstrom), charge = 0, multiplicity = 1:

       Center              X                  Y                   Z               Mass       
    ------------   -----------------  -----------------  -----------------  -----------------
         C           -0.065028215649    -0.457801397712    -0.356664428339    12.000000000000
         O           -1.106952387320    -0.418432972295    -1.096490153393    15.994914619560
         O            0.286660537591     1.078867526289    -0.494640876984    15.994914619560
         H           -0.658436779980     0.858193902749    -1.109256522023     1.007825032070
         H            1.484361210153     2.472883396662    -1.382867167226     1.007825032070
         C            1.508315795191     1.407551273275    -1.165436616463    12.000000000000
         H            1.603126873409     0.833039229664    -2.090303567128     1.007825032070
         H            2.334771628119     1.187595191059    -0.491583778532     1.007825032070
         CL          -0.281448851817    -0.753172644109     1.415155292936    34.968852682000
         H            0.835353911681    -1.008705457152    -0.652319687354     1.007825032070

  Running in c1 symmetry.

  Rotational constants: A =      0.22762  B =      0.08610  C =      0.06776 [cm^-1]
  Rotational constants: A =   6823.73460  B =   2581.31747  C =   2031.33488 [MHz]
  Nuclear repulsion =  237.891259327319233

  Charge       = 0
  Multiplicity = 1
  Electrons    = 50
  Nalpha       = 25
  Nbeta        = 25

  ==> Algorithm <==

  SCF Algorithm Type is DF.
  DIIS enabled.
  MOM disabled.
  Fractional occupation disabled.
  Guess Type is SAD.
  Energy threshold   = 1.00e-08
  Density threshold  = 1.00e-08
  Integral threshold = 0.00e+00

  ==> Primary Basis <==

  Basis Set: 6-311++G(D,P)
    Blend: 6-311++G(D,P)
    Number of shells: 79
    Number of basis function: 153
    Number of Cartesian functions: 158
    Spherical Harmonics?: true
    Max angular momentum: 2

  ==> DFT Potential <==

   => Composite Functional: M06-2X <= 

    Hybrid M06-2X Meta-GGA XC Functional

    Y. Zhao and D. G. Truhlar,  Theor. Chem. Acc., 120, 215, 2008


    Deriv               =              1
    GGA                 =           TRUE
    Meta                =           TRUE

    Exchange Hybrid     =           TRUE
    MP2 Hybrid          =          FALSE

   => Exchange Functionals <=

    1.0000   XC_HYB_MGGA_X_M06_2X

   => Exact (HF) Exchange <=

    0.5400               HF 

   => Correlation Functionals <=

    1.0000   XC_MGGA_C_M06_2X

   => Molecular Quadrature <=

    Radial Scheme       =       TREUTLER
    Pruning Scheme      =           FLAT
    Nuclear Scheme      =       TREUTLER

    BS radius alpha     =              1
    Pruning alpha       =              1
    Radial Points       =             75
    Spherical Points    =            302
    Total Points        =         226364
    Total Blocks        =           1748
    Max Points          =            256
    Max Functions       =            150

   => Loading Basis Set <=

    Name: (6-311++G(D,P) AUX)
    Role: JKFIT
    Keyword: DF_BASIS_SCF
    atoms 1, 6         entry C          line   162 file /root/psi4conda/share/psi4/basis/aug-cc-pvtz-jkfit.gbs 
    atoms 2-3          entry O          line   286 file /root/psi4conda/share/psi4/basis/aug-cc-pvtz-jkfit.gbs 
    atoms 4-5, 7-8, 10 entry H          line    70 file /root/psi4conda/share/psi4/basis/aug-cc-pvtz-jkfit.gbs 
    atoms 9            entry CL         line   816 file /root/psi4conda/share/psi4/basis/aug-cc-pvtz-jkfit.gbs 

  ==> Pre-Iterations <==

   -------------------------------------------------------
    Irrep   Nso     Nmo     Nalpha   Nbeta   Ndocc  Nsocc
   -------------------------------------------------------
     A        153     153       0       0       0       0
   -------------------------------------------------------
    Total     153     153      25      25      25       0
   -------------------------------------------------------

  ==> Integral Setup <==

  DFHelper Memory: AOs need 0.176 [GiB]; user supplied 0.366 [GiB]. Using in-core AOs.

  ==> MemDFJK: Density-Fitted J/K Matrices <==

    J tasked:                   Yes
    K tasked:                   Yes
    wK tasked:                   No
    OpenMP threads:              16
    Memory (MB):                375
    Algorithm:                 Core
    Schwarz Cutoff:           1E-12
    Mask sparsity (%):       3.4346
    Fitting Condition:        1E-12

   => Auxiliary Basis Set <=

  Basis Set: (6-311++G(D,P) AUX)
    Blend: AUG-CC-PVTZ-JKFIT
    Number of shells: 232
    Number of basis function: 792
    Number of Cartesian functions: 979
    Spherical Harmonics?: true
    Max angular momentum: 4

  Minimum eigenvalue in the overlap matrix is 2.0299408954E-04.
  Using Symmetric Orthogonalization.

  SCF Guess: Superposition of Atomic Densities via on-the-fly atomic UHF.

  ==> Iterations <==

                           Total Energy        Delta E     RMS |[F,P]|

   @DF-RKS iter   0:  -690.99439860204313   -6.90994e+02   6.73655e-02 
   @DF-RKS iter   1:  -689.63939911814850    1.35500e+00   9.59712e-03 
   @DF-RKS iter   2:  -689.64311117113903   -3.71205e-03   1.20981e-02 DIIS
   @DF-RKS iter   3:  -689.75495280611381   -1.11842e-01   1.63189e-03 DIIS
   @DF-RKS iter   4:  -689.75697162094320   -2.01881e-03   8.36365e-04 DIIS
   @DF-RKS iter   5:  -689.75747643968873   -5.04819e-04   3.32144e-04 DIIS
   @DF-RKS iter   6:  -689.75756264514541   -8.62055e-05   7.31369e-05 DIIS
   @DF-RKS iter   7:  -689.75756785171802   -5.20657e-06   2.42274e-05 DIIS
   @DF-RKS iter   8:  -689.75756836989422   -5.18176e-07   8.99674e-06 DIIS
   @DF-RKS iter   9:  -689.75756845594537   -8.60512e-08   1.35180e-06 DIIS
   @DF-RKS iter  10:  -689.75756845911144   -3.16606e-09   6.60404e-07 DIIS
   @DF-RKS iter  11:  -689.75756845966885   -5.57407e-10   1.20968e-07 DIIS
   @DF-RKS iter  12:  -689.75756845970534   -3.64935e-11   3.26937e-08 DIIS
   @DF-RKS iter  13:  -689.75756845970693   -1.59162e-12   7.68272e-09 DIIS

  ==> Post-Iterations <==

    Orbital Energies [Eh]
    ---------------------

    Doubly Occupied:                                                      

       1A   -102.662546     2A    -19.714130     3A    -19.610093  
       4A    -10.719390     5A    -10.630862     6A     -9.805483  
       7A     -7.530139     8A     -7.523972     9A     -7.523790  
      10A     -1.264199    11A     -1.141064    12A     -0.937557  
      13A     -0.843061    14A     -0.734331    15A     -0.660809  
      16A     -0.603660    17A     -0.583828    18A     -0.539359  
      19A     -0.520494    20A     -0.479124    21A     -0.470099  
      22A     -0.389353    23A     -0.374872    24A     -0.365177  
      25A     -0.350749  

    Virtual:                                                              

      26A     -0.013879    27A      0.008786    28A      0.017374  
      29A      0.021974    30A      0.039284    31A      0.050377  
      32A      0.056873    33A      0.065700    34A      0.076703  
      35A      0.081156    36A      0.096677    37A      0.110874  
      38A      0.116548    39A      0.117800    40A      0.127511  
      41A      0.131297    42A      0.133322    43A      0.147044  
      44A      0.178983    45A      0.184056    46A      0.202749  
      47A      0.212509    48A      0.215874    49A      0.229258  
      50A      0.249911    51A      0.267528    52A      0.281072  
      53A      0.302552    54A      0.311753    55A      0.316162  
      56A      0.328963    57A      0.339898    58A      0.394113  
      59A      0.413341    60A      0.448655    61A      0.456794  
      62A      0.476148    63A      0.486574    64A      0.520934  
      65A      0.536042    66A      0.555101    67A      0.590779  
      68A      0.602462    69A      0.640853    70A      0.659287  
      71A      0.686270    72A      0.690502    73A      0.708184  
      74A      0.872205    75A      0.934438    76A      0.938929  
      77A      0.962372    78A      0.968904    79A      0.985570  
      80A      1.018376    81A      1.038213    82A      1.051167  
      83A      1.130289    84A      1.162938    85A      1.189349  
      86A      1.214575    87A      1.246415    88A      1.257873  
      89A      1.276305    90A      1.355386    91A      1.381652  
      92A      1.449287    93A      1.489556    94A      1.537323  
      95A      1.548823    96A      1.582838    97A      1.634396  
      98A      1.676370    99A      1.680780   100A      1.711375  
     101A      1.747772   102A      1.774193   103A      1.808622  
     104A      1.838835   105A      1.948628   106A      2.022721  
     107A      2.038916   108A      2.098750   109A      2.142948  
     110A      2.220610   111A      2.323642   112A      2.384776  
     113A      2.425976   114A      2.456746   115A      2.475276  
     116A      2.507893   117A      2.527915   118A      2.559039  
     119A      2.598075   120A      2.683577   121A      2.730269  
     122A      2.778098   123A      2.877035   124A      2.900026  
     125A      2.974884   126A      3.088298   127A      3.106356  
     128A      3.187262   129A      3.234228   130A      3.397527  
     131A      3.450056   132A      3.546721   133A      3.716877  
     134A      3.805391   135A      3.815784   136A      3.960995  
     137A      4.006062   138A      4.097384   139A      5.193757  
     140A      5.210567   141A      5.250289   142A      5.294944  
     143A      5.611951   144A      5.730918   145A      9.919231  
     146A     23.783930   147A     23.948285   148A     25.990718  
     149A     26.020658   150A     26.532611   151A     49.950598  
     152A     50.089572   153A    216.011525  

    Final Occupation by Irrep:
              A 
    DOCC [    25 ]

  Energy converged.

  @DF-RKS Final Energy:  -689.75756845970693

   => Energetics <=

    Nuclear Repulsion Energy =            237.8912593273192329
    One-Electron Energy =               -1420.6917508572539646
    Two-Electron Energy =                 520.7804547039496583
    DFT Exchange-Correlation Energy =     -27.7375316337218116
    Empirical Dispersion Energy =           0.0000000000000000
    VV10 Nonlocal Energy =                  0.0000000000000000
    Total Energy =                       -689.7575684597069312



Properties will be evaluated at   0.000000,   0.000000,   0.000000 [a0]

Properties computed using the SCF density matrix

  Nuclear Dipole Moment: [e a0]
     X:     5.5028      Y:     4.7641      Z:    -6.6714

  Electronic Dipole Moment: [e a0]
     X:    -3.9328      Y:    -3.8378      Z:     5.9081

  Dipole Moment: [e a0]
     X:     1.5699      Y:     0.9263      Z:    -0.7633     Total:     1.9762

  Dipole Moment: [D]
     X:     3.9903      Y:     2.3545      Z:    -1.9400     Total:     5.0230


*** tstop() called on localhost.localdomain at Thu Jan 17 13:35:00 2019
Module time:
	user time   =     141.65 seconds =       2.36 minutes
	system time =       2.44 seconds =       0.04 minutes
	total time  =         11 seconds =       0.18 minutes
Total time:
	user time   =     321.17 seconds =       5.35 minutes
	system time =       6.73 seconds =       0.11 minutes
	total time  =         24 seconds =       0.40 minutes

*** tstart() called on localhost.localdomain
*** at Thu Jan 17 13:35:00 2019


         ------------------------------------------------------------
                                   SCF GRAD                          
                          Rob Parrish, Justin Turney,                
                       Andy Simmonett, and Alex Sokolov              
         ------------------------------------------------------------

  ==> Geometry <==

    Molecular point group: c1
    Full point group: C1

    Geometry (in Angstrom), charge = 0, multiplicity = 1:

       Center              X                  Y                   Z               Mass       
    ------------   -----------------  -----------------  -----------------  -----------------
         C           -0.065028215649    -0.457801397712    -0.356664428339    12.000000000000
         O           -1.106952387320    -0.418432972295    -1.096490153393    15.994914619560
         O            0.286660537591     1.078867526289    -0.494640876984    15.994914619560
         H           -0.658436779980     0.858193902749    -1.109256522023     1.007825032070
         H            1.484361210153     2.472883396662    -1.382867167226     1.007825032070
         C            1.508315795191     1.407551273275    -1.165436616463    12.000000000000
         H            1.603126873409     0.833039229664    -2.090303567128     1.007825032070
         H            2.334771628119     1.187595191059    -0.491583778532     1.007825032070
         CL          -0.281448851817    -0.753172644109     1.415155292936    34.968852682000
         H            0.835353911681    -1.008705457152    -0.652319687354     1.007825032070

  Nuclear repulsion =  237.891259327319233

  ==> Basis Set <==

  Basis Set: 6-311++G(D,P)
    Blend: 6-311++G(D,P)
    Number of shells: 79
    Number of basis function: 153
    Number of Cartesian functions: 158
    Spherical Harmonics?: true
    Max angular momentum: 2

  ==> DFJKGrad: Density-Fitted SCF Gradients <==

    Gradient:                    1
    J tasked:                  Yes
    K tasked:                  Yes
    wK tasked:                  No
    OpenMP threads:             16
    Integrals threads:          16
    Memory (MB):               375
    Schwarz Cutoff:          0E+00
    Fitting Condition:       1E-12

   => Auxiliary Basis Set <=

  Basis Set: (6-311++G(D,P) AUX)
    Blend: AUG-CC-PVTZ-JKFIT
    Number of shells: 232
    Number of basis function: 792
    Number of Cartesian functions: 979
    Spherical Harmonics?: true
    Max angular momentum: 4

  ==> DFT Potential <==

   => Composite Functional: M06-2X <= 

    Hybrid M06-2X Meta-GGA XC Functional

    Y. Zhao and D. G. Truhlar,  Theor. Chem. Acc., 120, 215, 2008


    Deriv               =              1
    GGA                 =           TRUE
    Meta                =           TRUE

    Exchange Hybrid     =           TRUE
    MP2 Hybrid          =          FALSE

   => Exchange Functionals <=

    1.0000   XC_HYB_MGGA_X_M06_2X

   => Exact (HF) Exchange <=

    0.5400               HF 

   => Correlation Functionals <=

    1.0000   XC_MGGA_C_M06_2X

   => Molecular Quadrature <=

    Radial Scheme       =       TREUTLER
    Pruning Scheme      =           FLAT
    Nuclear Scheme      =       TREUTLER

    BS radius alpha     =              1
    Pruning alpha       =              1
    Radial Points       =             75
    Spherical Points    =            302
    Total Points        =         226364
    Total Blocks        =           1748
    Max Points          =            256
    Max Functions       =            150


  -Total Gradient:
     Atom            X                  Y                   Z
    ------   -----------------  -----------------  -----------------
       1       -0.001099886005     0.000274528338    -0.000005524182
       2        0.000599155129    -0.000002696468     0.000324146917
       3        0.000200032866    -0.000050508099     0.000058951181
       4       -0.000143131012    -0.000203004694     0.000055983425
       5       -0.000016780075    -0.000024463842    -0.000007597700
       6       -0.000037780169    -0.000009440010     0.000005387327
       7       -0.000017043379    -0.000022795009     0.000011240143
       8       -0.000000950914    -0.000001079269     0.000005074988
       9        0.000101120589     0.000028249451    -0.000132229659
      10        0.000357633351    -0.000186994535    -0.000003906088


*** tstop() called on localhost.localdomain at Thu Jan 17 13:35:03 2019
Module time:
	user time   =      41.72 seconds =       0.70 minutes
	system time =       1.59 seconds =       0.03 minutes
	total time  =          3 seconds =       0.05 minutes
Total time:
	user time   =     362.94 seconds =       6.05 minutes
	system time =       8.32 seconds =       0.14 minutes
	total time  =         27 seconds =       0.45 minutes

  //>>>>>>>>>>>>>>>>>>>>>>>>>>>>>>>>>>>//
  //    Loading displacement 2 of 49   //
  //<<<<<<<<<<<<<<<<<<<<<<<<<<<<<<<<<<<//
gradient() will perform analytic gradient computation.

*** tstart() called on localhost.localdomain
*** at Thu Jan 17 13:35:03 2019

   => Loading Basis Set <=

    Name: 6-311++G(D,P)
    Role: ORBITAL
    Keyword: BASIS
    atoms 1, 6         entry C          line   119 file /root/psi4conda/share/psi4/basis/6-311ppg_d_p_.gbs 
    atoms 2-3          entry O          line   161 file /root/psi4conda/share/psi4/basis/6-311ppg_d_p_.gbs 
    atoms 4-5, 7-8, 10 entry H          line    42 file /root/psi4conda/share/psi4/basis/6-311ppg_d_p_.gbs 
    atoms 9            entry CL         line   458 file /root/psi4conda/share/psi4/basis/6-311ppg_d_p_.gbs 


         ---------------------------------------------------------
                                   SCF
            by Justin Turney, Rob Parrish, Andy Simmonett
                             and Daniel Smith
                              RKS Reference
                       16 Threads,    500 MiB Core
         ---------------------------------------------------------

  ==> Geometry <==

    Molecular point group: c1
    Full point group: C1

    Geometry (in Angstrom), charge = 0, multiplicity = 1:

       Center              X                  Y                   Z               Mass       
    ------------   -----------------  -----------------  -----------------  -----------------
         C           -0.063639987211    -0.457781029682    -0.356675669217    12.000000000000
         O           -1.107306137740    -0.418268892579    -1.096407734801    15.994914619560
         O            0.286527056239     1.078853839815    -0.494626320528    15.994914619560
         H           -0.658649216080     0.858308401349    -1.109166557411     1.007825032070
         H            1.484304730079     2.472768914536    -1.382906962610     1.007825032070
         C            1.508159667939     1.407426084053    -1.165517921611    12.000000000000
         H            1.602824868249     0.832937671720    -2.090414493767     1.007825032070
         H            2.334650528273     1.187352866699    -0.491746294233     1.007825032070
         CL          -0.281617893937    -0.753193563107     1.415152332606    34.968852682000
         H            0.834973549613    -1.008774519554    -0.652430833344     1.007825032070

  Running in c1 symmetry.

  Rotational constants: A =      0.22762  B =      0.08610  C =      0.06776 [cm^-1]
  Rotational constants: A =   6823.90617  B =   2581.19700  C =   2031.43667 [MHz]
  Nuclear repulsion =  237.877478775221164

  Charge       = 0
  Multiplicity = 1
  Electrons    = 50
  Nalpha       = 25
  Nbeta        = 25

  ==> Algorithm <==

  SCF Algorithm Type is DF.
  DIIS enabled.
  MOM disabled.
  Fractional occupation disabled.
  Guess Type is SAD.
  Energy threshold   = 1.00e-08
  Density threshold  = 1.00e-08
  Integral threshold = 0.00e+00

  ==> Primary Basis <==

  Basis Set: 6-311++G(D,P)
    Blend: 6-311++G(D,P)
    Number of shells: 79
    Number of basis function: 153
    Number of Cartesian functions: 158
    Spherical Harmonics?: true
    Max angular momentum: 2

  ==> DFT Potential <==

   => Composite Functional: M06-2X <= 

    Hybrid M06-2X Meta-GGA XC Functional

    Y. Zhao and D. G. Truhlar,  Theor. Chem. Acc., 120, 215, 2008


    Deriv               =              1
    GGA                 =           TRUE
    Meta                =           TRUE

    Exchange Hybrid     =           TRUE
    MP2 Hybrid          =          FALSE

   => Exchange Functionals <=

    1.0000   XC_HYB_MGGA_X_M06_2X

   => Exact (HF) Exchange <=

    0.5400               HF 

   => Correlation Functionals <=

    1.0000   XC_MGGA_C_M06_2X

   => Molecular Quadrature <=

    Radial Scheme       =       TREUTLER
    Pruning Scheme      =           FLAT
    Nuclear Scheme      =       TREUTLER

    BS radius alpha     =              1
    Pruning alpha       =              1
    Radial Points       =             75
    Spherical Points    =            302
    Total Points        =         226364
    Total Blocks        =           1747
    Max Points          =            256
    Max Functions       =            150

   => Loading Basis Set <=

    Name: (6-311++G(D,P) AUX)
    Role: JKFIT
    Keyword: DF_BASIS_SCF
    atoms 1, 6         entry C          line   162 file /root/psi4conda/share/psi4/basis/aug-cc-pvtz-jkfit.gbs 
    atoms 2-3          entry O          line   286 file /root/psi4conda/share/psi4/basis/aug-cc-pvtz-jkfit.gbs 
    atoms 4-5, 7-8, 10 entry H          line    70 file /root/psi4conda/share/psi4/basis/aug-cc-pvtz-jkfit.gbs 
    atoms 9            entry CL         line   816 file /root/psi4conda/share/psi4/basis/aug-cc-pvtz-jkfit.gbs 

  ==> Pre-Iterations <==

   -------------------------------------------------------
    Irrep   Nso     Nmo     Nalpha   Nbeta   Ndocc  Nsocc
   -------------------------------------------------------
     A        153     153       0       0       0       0
   -------------------------------------------------------
    Total     153     153      25      25      25       0
   -------------------------------------------------------

  ==> Integral Setup <==

  DFHelper Memory: AOs need 0.176 [GiB]; user supplied 0.366 [GiB]. Using in-core AOs.

  ==> MemDFJK: Density-Fitted J/K Matrices <==

    J tasked:                   Yes
    K tasked:                   Yes
    wK tasked:                   No
    OpenMP threads:              16
    Memory (MB):                375
    Algorithm:                 Core
    Schwarz Cutoff:           1E-12
    Mask sparsity (%):       3.4346
    Fitting Condition:        1E-12

   => Auxiliary Basis Set <=

  Basis Set: (6-311++G(D,P) AUX)
    Blend: AUG-CC-PVTZ-JKFIT
    Number of shells: 232
    Number of basis function: 792
    Number of Cartesian functions: 979
    Spherical Harmonics?: true
    Max angular momentum: 4

  Minimum eigenvalue in the overlap matrix is 2.0318315352E-04.
  Using Symmetric Orthogonalization.

  SCF Guess: Superposition of Atomic Densities via on-the-fly atomic UHF.

  ==> Iterations <==

                           Total Energy        Delta E     RMS |[F,P]|

   @DF-RKS iter   0:  -691.02035384001385   -6.91020e+02   8.55976e-02 
   @DF-RKS iter   1:  -689.66791741302336    1.35244e+00   9.69141e-03 
   @DF-RKS iter   2:  -689.65776060842290    1.01568e-02   1.29643e-02 DIIS
   @DF-RKS iter   3:  -689.75507868073225   -9.73181e-02   1.69058e-03 DIIS
   @DF-RKS iter   4:  -689.75705195774231   -1.97328e-03   8.82779e-04 DIIS
   @DF-RKS iter   5:  -689.75749397308869   -4.42015e-04   2.99139e-04 DIIS
   @DF-RKS iter   6:  -689.75756300027820   -6.90272e-05   9.45517e-05 DIIS
   @DF-RKS iter   7:  -689.75756850510038   -5.50482e-06   2.29366e-05 DIIS
   @DF-RKS iter   8:  -689.75756896619021   -4.61090e-07   8.68455e-06 DIIS
   @DF-RKS iter   9:  -689.75756904341426   -7.72241e-08   1.44526e-06 DIIS
   @DF-RKS iter  10:  -689.75756904789830   -4.48404e-09   6.34748e-07 DIIS
   @DF-RKS iter  11:  -689.75756904846946   -5.71163e-10   1.61949e-07 DIIS
   @DF-RKS iter  12:  -689.75756904852153   -5.20686e-11   3.44340e-08 DIIS
   @DF-RKS iter  13:  -689.75756904852494   -3.41061e-12   6.84794e-09 DIIS

  ==> Post-Iterations <==

    Orbital Energies [Eh]
    ---------------------

    Doubly Occupied:                                                      

       1A   -102.662597     2A    -19.714302     3A    -19.609898  
       4A    -10.719390     5A    -10.630928     6A     -9.805526  
       7A     -7.530183     8A     -7.524015     9A     -7.523832  
      10A     -1.264100    11A     -1.140514    12A     -0.937539  
      13A     -0.843097    14A     -0.734720    15A     -0.660766  
      16A     -0.603772    17A     -0.583889    18A     -0.539239  
      19A     -0.520237    20A     -0.479226    21A     -0.470060  
      22A     -0.389289    23A     -0.374896    24A     -0.365128  
      25A     -0.350638  

    Virtual:                                                              

      26A     -0.013904    27A      0.008770    28A      0.017371  
      29A      0.021946    30A      0.039260    31A      0.050308  
      32A      0.056857    33A      0.065667    34A      0.076715  
      35A      0.081175    36A      0.096673    37A      0.110858  
      38A      0.116512    39A      0.117780    40A      0.127547  
      41A      0.131293    42A      0.133350    43A      0.147043  
      44A      0.178977    45A      0.184036    46A      0.202751  
      47A      0.212443    48A      0.215855    49A      0.229203  
      50A      0.249909    51A      0.267544    52A      0.280953  
      53A      0.302624    54A      0.311752    55A      0.316183  
      56A      0.328972    57A      0.339736    58A      0.394160  
      59A      0.413256    60A      0.448607    61A      0.456721  
      62A      0.476145    63A      0.486538    64A      0.520937  
      65A      0.536097    66A      0.554961    67A      0.590684  
      68A      0.602369    69A      0.640828    70A      0.659254  
      71A      0.685599    72A      0.690494    73A      0.708364  
      74A      0.872051    75A      0.934534    76A      0.938936  
      77A      0.962389    78A      0.968858    79A      0.985432  
      80A      1.018306    81A      1.038165    82A      1.051203  
      83A      1.130164    84A      1.163044    85A      1.189412  
      86A      1.214755    87A      1.246325    88A      1.257784  
      89A      1.276444    90A      1.355426    91A      1.381496  
      92A      1.449232    93A      1.489764    94A      1.537481  
      95A      1.548809    96A      1.582933    97A      1.634510  
      98A      1.676324    99A      1.680787   100A      1.711428  
     101A      1.747719   102A      1.774005   103A      1.808831  
     104A      1.838745   105A      1.948511   106A      2.022664  
     107A      2.038795   108A      2.098913   109A      2.142971  
     110A      2.220514   111A      2.323568   112A      2.384690  
     113A      2.426139   114A      2.457039   115A      2.476437  
     116A      2.507824   117A      2.528045   118A      2.558941  
     119A      2.598103   120A      2.683631   121A      2.729989  
     122A      2.777774   123A      2.877143   124A      2.899956  
     125A      2.974706   126A      3.088603   127A      3.106199  
     128A      3.186223   129A      3.232889   130A      3.396136  
     131A      3.449306   132A      3.546915   133A      3.717021  
     134A      3.805516   135A      3.815709   136A      3.961381  
     137A      4.006468   138A      4.097837   139A      5.193820  
     140A      5.210600   141A      5.250257   142A      5.295132  
     143A      5.611783   144A      5.730132   145A      9.919124  
     146A     23.783709   147A     23.948225   148A     25.990639  
     149A     26.020586   150A     26.532729   151A     49.950461  
     152A     50.089193   153A    216.011411  

    Final Occupation by Irrep:
              A 
    DOCC [    25 ]

  Energy converged.

  @DF-RKS Final Energy:  -689.75756904852494

   => Energetics <=

    Nuclear Repulsion Energy =            237.8774787752211637
    One-Electron Energy =               -1420.6650865568894915
    Two-Electron Energy =                 520.7673904258764424
    DFT Exchange-Correlation Energy =     -27.7373516927330570
    Empirical Dispersion Energy =           0.0000000000000000
    VV10 Nonlocal Energy =                  0.0000000000000000
    Total Energy =                       -689.7575690485250561



Properties will be evaluated at   0.000000,   0.000000,   0.000000 [a0]

Properties computed using the SCF density matrix

  Nuclear Dipole Moment: [e a0]
     X:     5.5019      Y:     4.7637      Z:    -6.6717

  Electronic Dipole Moment: [e a0]
     X:    -3.9285      Y:    -3.8369      Z:     5.9095

  Dipole Moment: [e a0]
     X:     1.5734      Y:     0.9269      Z:    -0.7622     Total:     1.9788

  Dipole Moment: [D]
     X:     3.9993      Y:     2.3559      Z:    -1.9373     Total:     5.0297


*** tstop() called on localhost.localdomain at Thu Jan 17 13:35:13 2019
Module time:
	user time   =     133.20 seconds =       2.22 minutes
	system time =       2.67 seconds =       0.04 minutes
	total time  =         10 seconds =       0.17 minutes
Total time:
	user time   =     496.40 seconds =       8.27 minutes
	system time =      11.01 seconds =       0.18 minutes
	total time  =         37 seconds =       0.62 minutes

*** tstart() called on localhost.localdomain
*** at Thu Jan 17 13:35:13 2019


         ------------------------------------------------------------
                                   SCF GRAD                          
                          Rob Parrish, Justin Turney,                
                       Andy Simmonett, and Alex Sokolov              
         ------------------------------------------------------------

  ==> Geometry <==

    Molecular point group: c1
    Full point group: C1

    Geometry (in Angstrom), charge = 0, multiplicity = 1:

       Center              X                  Y                   Z               Mass       
    ------------   -----------------  -----------------  -----------------  -----------------
         C           -0.063639987211    -0.457781029682    -0.356675669217    12.000000000000
         O           -1.107306137740    -0.418268892579    -1.096407734801    15.994914619560
         O            0.286527056239     1.078853839815    -0.494626320528    15.994914619560
         H           -0.658649216080     0.858308401349    -1.109166557411     1.007825032070
         H            1.484304730079     2.472768914536    -1.382906962610     1.007825032070
         C            1.508159667939     1.407426084053    -1.165517921611    12.000000000000
         H            1.602824868249     0.832937671720    -2.090414493767     1.007825032070
         H            2.334650528273     1.187352866699    -0.491746294233     1.007825032070
         CL          -0.281617893937    -0.753193563107     1.415152332606    34.968852682000
         H            0.834973549613    -1.008774519554    -0.652430833344     1.007825032070

  Nuclear repulsion =  237.877478775221164

  ==> Basis Set <==

  Basis Set: 6-311++G(D,P)
    Blend: 6-311++G(D,P)
    Number of shells: 79
    Number of basis function: 153
    Number of Cartesian functions: 158
    Spherical Harmonics?: true
    Max angular momentum: 2

  ==> DFJKGrad: Density-Fitted SCF Gradients <==

    Gradient:                    1
    J tasked:                  Yes
    K tasked:                  Yes
    wK tasked:                  No
    OpenMP threads:             16
    Integrals threads:          16
    Memory (MB):               375
    Schwarz Cutoff:          0E+00
    Fitting Condition:       1E-12

   => Auxiliary Basis Set <=

  Basis Set: (6-311++G(D,P) AUX)
    Blend: AUG-CC-PVTZ-JKFIT
    Number of shells: 232
    Number of basis function: 792
    Number of Cartesian functions: 979
    Spherical Harmonics?: true
    Max angular momentum: 4

  ==> DFT Potential <==

   => Composite Functional: M06-2X <= 

    Hybrid M06-2X Meta-GGA XC Functional

    Y. Zhao and D. G. Truhlar,  Theor. Chem. Acc., 120, 215, 2008


    Deriv               =              1
    GGA                 =           TRUE
    Meta                =           TRUE

    Exchange Hybrid     =           TRUE
    MP2 Hybrid          =          FALSE

   => Exchange Functionals <=

    1.0000   XC_HYB_MGGA_X_M06_2X

   => Exact (HF) Exchange <=

    0.5400               HF 

   => Correlation Functionals <=

    1.0000   XC_MGGA_C_M06_2X

   => Molecular Quadrature <=

    Radial Scheme       =       TREUTLER
    Pruning Scheme      =           FLAT
    Nuclear Scheme      =       TREUTLER

    BS radius alpha     =              1
    Pruning alpha       =              1
    Radial Points       =             75
    Spherical Points    =            302
    Total Points        =         226364
    Total Blocks        =           1747
    Max Points          =            256
    Max Functions       =            150


  -Total Gradient:
     Atom            X                  Y                   Z
    ------   -----------------  -----------------  -----------------
       1        0.000928187723    -0.000465304508     0.000161472480
       2       -0.000485049403    -0.000050646530    -0.000153901134
       3       -0.000086873945     0.000186244709    -0.000034581431
       4        0.000082471520     0.000068402598     0.000092959816
       5       -0.000017505930    -0.000022314588    -0.000007653013
       6       -0.000075502180    -0.000067354662     0.000019546774
       7       -0.000009336495    -0.000026545060     0.000011027378
       8       -0.000004049282    -0.000004899653     0.000005895025
       9       -0.000046221146     0.000030740646     0.000007815067
      10       -0.000341912851     0.000152564151     0.000207089170


*** tstop() called on localhost.localdomain at Thu Jan 17 13:35:16 2019
Module time:
	user time   =      42.49 seconds =       0.71 minutes
	system time =       2.17 seconds =       0.04 minutes
	total time  =          3 seconds =       0.05 minutes
Total time:
	user time   =     538.93 seconds =       8.98 minutes
	system time =      13.18 seconds =       0.22 minutes
	total time  =         40 seconds =       0.67 minutes

  //>>>>>>>>>>>>>>>>>>>>>>>>>>>>>>>>>>>//
  //    Loading displacement 3 of 49   //
  //<<<<<<<<<<<<<<<<<<<<<<<<<<<<<<<<<<<//
gradient() will perform analytic gradient computation.

*** tstart() called on localhost.localdomain
*** at Thu Jan 17 13:35:16 2019

   => Loading Basis Set <=

    Name: 6-311++G(D,P)
    Role: ORBITAL
    Keyword: BASIS
    atoms 1, 6         entry C          line   119 file /root/psi4conda/share/psi4/basis/6-311ppg_d_p_.gbs 
    atoms 2-3          entry O          line   161 file /root/psi4conda/share/psi4/basis/6-311ppg_d_p_.gbs 
    atoms 4-5, 7-8, 10 entry H          line    42 file /root/psi4conda/share/psi4/basis/6-311ppg_d_p_.gbs 
    atoms 9            entry CL         line   458 file /root/psi4conda/share/psi4/basis/6-311ppg_d_p_.gbs 


         ---------------------------------------------------------
                                   SCF
            by Justin Turney, Rob Parrish, Andy Simmonett
                             and Daniel Smith
                              RKS Reference
                       16 Threads,    500 MiB Core
         ---------------------------------------------------------

  ==> Geometry <==

    Molecular point group: c1
    Full point group: C1

    Geometry (in Angstrom), charge = 0, multiplicity = 1:

       Center              X                  Y                   Z               Mass       
    ------------   -----------------  -----------------  -----------------  -----------------
         C           -0.064334101430    -0.458501209444    -0.356679667074    12.000000000000
         O           -1.107149324949    -0.418207869559    -1.096445603478    15.994914619560
         O            0.286601700364     1.078970572458    -0.494612493496    15.994914619560
         H           -0.658545300456     0.858388211235    -1.109184492111     1.007825032070
         H            1.484350149622     2.472939350374    -1.382848264409     1.007825032070
         C            1.508242482577     1.407596616757    -1.165462860436    12.000000000000
         H            1.602961861218     0.833115995744    -2.090358722621     1.007825032070
         H            2.334720539579     1.187555120910    -0.491665171184     1.007825032070
         CL          -0.281529070555    -0.753108475275     1.415140021096    34.968852682000
         H            0.835140524840    -1.008634223380    -0.652407758137     1.007825032070

  Running in c1 symmetry.

  Rotational constants: A =      0.22759  B =      0.08610  C =      0.06776 [cm^-1]
  Rotational constants: A =   6823.04047  B =   2581.17156  C =   2031.36084 [MHz]
  Nuclear repulsion =  237.876045009830023

  Charge       = 0
  Multiplicity = 1
  Electrons    = 50
  Nalpha       = 25
  Nbeta        = 25

  ==> Algorithm <==

  SCF Algorithm Type is DF.
  DIIS enabled.
  MOM disabled.
  Fractional occupation disabled.
  Guess Type is SAD.
  Energy threshold   = 1.00e-08
  Density threshold  = 1.00e-08
  Integral threshold = 0.00e+00

  ==> Primary Basis <==

  Basis Set: 6-311++G(D,P)
    Blend: 6-311++G(D,P)
    Number of shells: 79
    Number of basis function: 153
    Number of Cartesian functions: 158
    Spherical Harmonics?: true
    Max angular momentum: 2

  ==> DFT Potential <==

   => Composite Functional: M06-2X <= 

    Hybrid M06-2X Meta-GGA XC Functional

    Y. Zhao and D. G. Truhlar,  Theor. Chem. Acc., 120, 215, 2008


    Deriv               =              1
    GGA                 =           TRUE
    Meta                =           TRUE

    Exchange Hybrid     =           TRUE
    MP2 Hybrid          =          FALSE

   => Exchange Functionals <=

    1.0000   XC_HYB_MGGA_X_M06_2X

   => Exact (HF) Exchange <=

    0.5400               HF 

   => Correlation Functionals <=

    1.0000   XC_MGGA_C_M06_2X

   => Molecular Quadrature <=

    Radial Scheme       =       TREUTLER
    Pruning Scheme      =           FLAT
    Nuclear Scheme      =       TREUTLER

    BS radius alpha     =              1
    Pruning alpha       =              1
    Radial Points       =             75
    Spherical Points    =            302
    Total Points        =         226364
    Total Blocks        =           1747
    Max Points          =            256
    Max Functions       =            150

   => Loading Basis Set <=

    Name: (6-311++G(D,P) AUX)
    Role: JKFIT
    Keyword: DF_BASIS_SCF
    atoms 1, 6         entry C          line   162 file /root/psi4conda/share/psi4/basis/aug-cc-pvtz-jkfit.gbs 
    atoms 2-3          entry O          line   286 file /root/psi4conda/share/psi4/basis/aug-cc-pvtz-jkfit.gbs 
    atoms 4-5, 7-8, 10 entry H          line    70 file /root/psi4conda/share/psi4/basis/aug-cc-pvtz-jkfit.gbs 
    atoms 9            entry CL         line   816 file /root/psi4conda/share/psi4/basis/aug-cc-pvtz-jkfit.gbs 

  ==> Pre-Iterations <==

   -------------------------------------------------------
    Irrep   Nso     Nmo     Nalpha   Nbeta   Ndocc  Nsocc
   -------------------------------------------------------
     A        153     153       0       0       0       0
   -------------------------------------------------------
    Total     153     153      25      25      25       0
   -------------------------------------------------------

  ==> Integral Setup <==

  DFHelper Memory: AOs need 0.176 [GiB]; user supplied 0.366 [GiB]. Using in-core AOs.

  ==> MemDFJK: Density-Fitted J/K Matrices <==

    J tasked:                   Yes
    K tasked:                   Yes
    wK tasked:                   No
    OpenMP threads:              16
    Memory (MB):                375
    Algorithm:                 Core
    Schwarz Cutoff:           1E-12
    Mask sparsity (%):       3.4346
    Fitting Condition:        1E-12

   => Auxiliary Basis Set <=

  Basis Set: (6-311++G(D,P) AUX)
    Blend: AUG-CC-PVTZ-JKFIT
    Number of shells: 232
    Number of basis function: 792
    Number of Cartesian functions: 979
    Spherical Harmonics?: true
    Max angular momentum: 4

  Minimum eigenvalue in the overlap matrix is 2.0306934102E-04.
  Using Symmetric Orthogonalization.

  SCF Guess: Superposition of Atomic Densities via on-the-fly atomic UHF.

  ==> Iterations <==

                           Total Energy        Delta E     RMS |[F,P]|

   @DF-RKS iter   0:  -690.76205634349014   -6.90762e+02   8.24635e-02 
   @DF-RKS iter   1:  -689.63907431827181    1.12298e+00   1.40404e-02 
   @DF-RKS iter   2:  -689.61776777620980    2.13065e-02   1.59792e-02 DIIS
   @DF-RKS iter   3:  -689.75381429033916   -1.36047e-01   2.17146e-03 DIIS
   @DF-RKS iter   4:  -689.75684287592151   -3.02859e-03   1.03517e-03 DIIS
   @DF-RKS iter   5:  -689.75747552722351   -6.32651e-04   2.73027e-04 DIIS
   @DF-RKS iter   6:  -689.75756198189708   -8.64547e-05   7.39033e-05 DIIS
   @DF-RKS iter   7:  -689.75756808411927   -6.10222e-06   2.61357e-05 DIIS
   @DF-RKS iter   8:  -689.75756896354414   -8.79425e-07   1.06548e-05 DIIS
   @DF-RKS iter   9:  -689.75756909978065   -1.36237e-07   1.25957e-06 DIIS
   @DF-RKS iter  10:  -689.75756910375242   -3.97176e-09   5.43786e-07 DIIS
   @DF-RKS iter  11:  -689.75756910406699   -3.14571e-10   1.61269e-07 DIIS
   @DF-RKS iter  12:  -689.75756910409723   -3.02407e-11   3.42517e-08 DIIS
   @DF-RKS iter  13:  -689.75756910409916   -1.93268e-12   5.11539e-09 DIIS

  ==> Post-Iterations <==

    Orbital Energies [Eh]
    ---------------------

    Doubly Occupied:                                                      

       1A   -102.662634     2A    -19.714061     3A    -19.610016  
       4A    -10.719395     5A    -10.630817     6A     -9.805566  
       7A     -7.530223     8A     -7.524055     9A     -7.523872  
      10A     -1.263935    11A     -1.140740    12A     -0.937616  
      13A     -0.842939    14A     -0.734584    15A     -0.660657  
      16A     -0.603619    17A     -0.583784    18A     -0.539368  
      19A     -0.520364    20A     -0.479078    21A     -0.470048  
      22A     -0.389285    23A     -0.374928    24A     -0.365165  
      25A     -0.350751  

    Virtual:                                                              

      26A     -0.013878    27A      0.008789    28A      0.017381  
      29A      0.021972    30A      0.039278    31A      0.050297  
      32A      0.056806    33A      0.065670    34A      0.076676  
      35A      0.081139    36A      0.096625    37A      0.110851  
      38A      0.116505    39A      0.117804    40A      0.127526  
      41A      0.131234    42A      0.133349    43A      0.147060  
      44A      0.178996    45A      0.184084    46A      0.202765  
      47A      0.212504    48A      0.215875    49A      0.229234  
      50A      0.249962    51A      0.267577    52A      0.281016  
      53A      0.302583    54A      0.311724    55A      0.316173  
      56A      0.328959    57A      0.339805    58A      0.394172  
      59A      0.413267    60A      0.448659    61A      0.456799  
      62A      0.476133    63A      0.486562    64A      0.520917  
      65A      0.536077    66A      0.554963    67A      0.590779  
      68A      0.602444    69A      0.640896    70A      0.659298  
      71A      0.685913    72A      0.690494    73A      0.708401  
      74A      0.872113    75A      0.934395    76A      0.938921  
      77A      0.962366    78A      0.968878    79A      0.985462  
      80A      1.018442    81A      1.038182    82A      1.051294  
      83A      1.130297    84A      1.162973    85A      1.189361  
      86A      1.214644    87A      1.246374    88A      1.257859  
      89A      1.276367    90A      1.355405    91A      1.381636  
      92A      1.449307    93A      1.489798    94A      1.537488  
      95A      1.548861    96A      1.582961    97A      1.634345  
      98A      1.676307    99A      1.680841   100A      1.711411  
     101A      1.747749   102A      1.774084   103A      1.808707  
     104A      1.838712   105A      1.948515   106A      2.022685  
     107A      2.038870   108A      2.098937   109A      2.143005  
     110A      2.220585   111A      2.323545   112A      2.384794  
     113A      2.426198   114A      2.457045   115A      2.476113  
     116A      2.507881   117A      2.528016   118A      2.558993  
     119A      2.598104   120A      2.683449   121A      2.730089  
     122A      2.777699   123A      2.877179   124A      2.900058  
     125A      2.974756   126A      3.088487   127A      3.106294  
     128A      3.186722   129A      3.233161   130A      3.397180  
     131A      3.449509   132A      3.546690   133A      3.716929  
     134A      3.805495   135A      3.815805   136A      3.960693  
     137A      4.006294   138A      4.097612   139A      5.193611  
     140A      5.210592   141A      5.250314   142A      5.294945  
     143A      5.611674   144A      5.730478   145A      9.919176  
     146A     23.784183   147A     23.948327   148A     25.990615  
     149A     26.020601   150A     26.532709   151A     49.950662  
     152A     50.089363   153A    216.011462  

    Final Occupation by Irrep:
              A 
    DOCC [    25 ]

  Energy converged.

  @DF-RKS Final Energy:  -689.75756910409916

   => Energetics <=

    Nuclear Repulsion Energy =            237.8760450098300225
    One-Electron Energy =               -1420.6627172105745558
    Two-Electron Energy =                 520.7665152629313070
    DFT Exchange-Correlation Energy =     -27.7374121662859885
    Empirical Dispersion Energy =           0.0000000000000000
    VV10 Nonlocal Energy =                  0.0000000000000000
    Total Energy =                       -689.7575691040991614



Properties will be evaluated at   0.000000,   0.000000,   0.000000 [a0]

Properties computed using the SCF density matrix

  Nuclear Dipole Moment: [e a0]
     X:     5.5023      Y:     4.7644      Z:    -6.6715

  Electronic Dipole Moment: [e a0]
     X:    -3.9312      Y:    -3.8396      Z:     5.9096

  Dipole Moment: [e a0]
     X:     1.5711      Y:     0.9248      Z:    -0.7619     Total:     1.9758

  Dipole Moment: [D]
     X:     3.9933      Y:     2.3505      Z:    -1.9366     Total:     5.0221


*** tstop() called on localhost.localdomain at Thu Jan 17 13:35:26 2019
Module time:
	user time   =     138.25 seconds =       2.30 minutes
	system time =       2.41 seconds =       0.04 minutes
	total time  =         10 seconds =       0.17 minutes
Total time:
	user time   =     677.74 seconds =      11.30 minutes
	system time =      15.64 seconds =       0.26 minutes
	total time  =         50 seconds =       0.83 minutes

*** tstart() called on localhost.localdomain
*** at Thu Jan 17 13:35:26 2019


         ------------------------------------------------------------
                                   SCF GRAD                          
                          Rob Parrish, Justin Turney,                
                       Andy Simmonett, and Alex Sokolov              
         ------------------------------------------------------------

  ==> Geometry <==

    Molecular point group: c1
    Full point group: C1

    Geometry (in Angstrom), charge = 0, multiplicity = 1:

       Center              X                  Y                   Z               Mass       
    ------------   -----------------  -----------------  -----------------  -----------------
         C           -0.064334101430    -0.458501209444    -0.356679667074    12.000000000000
         O           -1.107149324949    -0.418207869559    -1.096445603478    15.994914619560
         O            0.286601700364     1.078970572458    -0.494612493496    15.994914619560
         H           -0.658545300456     0.858388211235    -1.109184492111     1.007825032070
         H            1.484350149622     2.472939350374    -1.382848264409     1.007825032070
         C            1.508242482577     1.407596616757    -1.165462860436    12.000000000000
         H            1.602961861218     0.833115995744    -2.090358722621     1.007825032070
         H            2.334720539579     1.187555120910    -0.491665171184     1.007825032070
         CL          -0.281529070555    -0.753108475275     1.415140021096    34.968852682000
         H            0.835140524840    -1.008634223380    -0.652407758137     1.007825032070

  Nuclear repulsion =  237.876045009830023

  ==> Basis Set <==

  Basis Set: 6-311++G(D,P)
    Blend: 6-311++G(D,P)
    Number of shells: 79
    Number of basis function: 153
    Number of Cartesian functions: 158
    Spherical Harmonics?: true
    Max angular momentum: 2

  ==> DFJKGrad: Density-Fitted SCF Gradients <==

    Gradient:                    1
    J tasked:                  Yes
    K tasked:                  Yes
    wK tasked:                  No
    OpenMP threads:             16
    Integrals threads:          16
    Memory (MB):               375
    Schwarz Cutoff:          0E+00
    Fitting Condition:       1E-12

   => Auxiliary Basis Set <=

  Basis Set: (6-311++G(D,P) AUX)
    Blend: AUG-CC-PVTZ-JKFIT
    Number of shells: 232
    Number of basis function: 792
    Number of Cartesian functions: 979
    Spherical Harmonics?: true
    Max angular momentum: 4

  ==> DFT Potential <==

   => Composite Functional: M06-2X <= 

    Hybrid M06-2X Meta-GGA XC Functional

    Y. Zhao and D. G. Truhlar,  Theor. Chem. Acc., 120, 215, 2008


    Deriv               =              1
    GGA                 =           TRUE
    Meta                =           TRUE

    Exchange Hybrid     =           TRUE
    MP2 Hybrid          =          FALSE

   => Exchange Functionals <=

    1.0000   XC_HYB_MGGA_X_M06_2X

   => Exact (HF) Exchange <=

    0.5400               HF 

   => Correlation Functionals <=

    1.0000   XC_MGGA_C_M06_2X

   => Molecular Quadrature <=

    Radial Scheme       =       TREUTLER
    Pruning Scheme      =           FLAT
    Nuclear Scheme      =       TREUTLER

    BS radius alpha     =              1
    Pruning alpha       =              1
    Radial Points       =             75
    Spherical Points    =            302
    Total Points        =         226364
    Total Blocks        =           1747
    Max Points          =            256
    Max Functions       =            150


  -Total Gradient:
     Atom            X                  Y                   Z
    ------   -----------------  -----------------  -----------------
       1        0.000291118291    -0.000528352848     0.000082427698
       2       -0.000011374877     0.000158139088     0.000035570291
       3        0.000028816953     0.000110131603     0.000049166907
       4       -0.000154229157    -0.000065390711    -0.000008285056
       5       -0.000029426977    -0.000027768565    -0.000000460570
       6       -0.000007645519    -0.000048978104     0.000001155039
       7       -0.000018900974    -0.000025280477     0.000017205072
       8       -0.000005021713    -0.000005048753     0.000004160480
       9        0.000022530892     0.000078505747    -0.000043924778
      10       -0.000172272202     0.000155394168     0.000173337379


*** tstop() called on localhost.localdomain at Thu Jan 17 13:35:29 2019
Module time:
	user time   =      38.04 seconds =       0.63 minutes
	system time =       1.62 seconds =       0.03 minutes
	total time  =          3 seconds =       0.05 minutes
Total time:
	user time   =     715.82 seconds =      11.93 minutes
	system time =      17.26 seconds =       0.29 minutes
	total time  =         53 seconds =       0.88 minutes

  //>>>>>>>>>>>>>>>>>>>>>>>>>>>>>>>>>>>//
  //    Loading displacement 4 of 49   //
  //<<<<<<<<<<<<<<<<<<<<<<<<<<<<<<<<<<<//
gradient() will perform analytic gradient computation.

*** tstart() called on localhost.localdomain
*** at Thu Jan 17 13:35:29 2019

   => Loading Basis Set <=

    Name: 6-311++G(D,P)
    Role: ORBITAL
    Keyword: BASIS
    atoms 1, 6         entry C          line   119 file /root/psi4conda/share/psi4/basis/6-311ppg_d_p_.gbs 
    atoms 2-3          entry O          line   161 file /root/psi4conda/share/psi4/basis/6-311ppg_d_p_.gbs 
    atoms 4-5, 7-8, 10 entry H          line    42 file /root/psi4conda/share/psi4/basis/6-311ppg_d_p_.gbs 
    atoms 9            entry CL         line   458 file /root/psi4conda/share/psi4/basis/6-311ppg_d_p_.gbs 


         ---------------------------------------------------------
                                   SCF
            by Justin Turney, Rob Parrish, Andy Simmonett
                             and Daniel Smith
                              RKS Reference
                       16 Threads,    500 MiB Core
         ---------------------------------------------------------

  ==> Geometry <==

    Molecular point group: c1
    Full point group: C1

    Geometry (in Angstrom), charge = 0, multiplicity = 1:

       Center              X                  Y                   Z               Mass       
    ------------   -----------------  -----------------  -----------------  -----------------
         C           -0.064334101430    -0.457081217950    -0.356660430482    12.000000000000
         O           -1.107109200111    -0.418493995315    -1.096452284715    15.994914619560
         O            0.286585893467     1.078750793646    -0.494654704015    15.994914619560
         H           -0.658540695604     0.858114092863    -1.109238587323     1.007825032070
         H            1.484315790610     2.472712960824    -1.382925865427     1.007825032070
         C            1.508232980553     1.407380740571    -1.165491677638    12.000000000000
         H            1.602989880440     0.832860905640    -2.090359338275     1.007825032070
         H            2.334701616813     1.187392936848    -0.491664901582     1.007825032070
         CL          -0.281537675199    -0.753257731941     1.415167604447    34.968852682000
         H            0.835186936454    -1.008845753326    -0.652342762561     1.007825032070

  Running in c1 symmetry.

  Rotational constants: A =      0.22764  B =      0.08610  C =      0.06776 [cm^-1]
  Rotational constants: A =   6824.60074  B =   2581.34284  C =   2031.41074 [MHz]
  Nuclear repulsion =  237.892686801472649

  Charge       = 0
  Multiplicity = 1
  Electrons    = 50
  Nalpha       = 25
  Nbeta        = 25

  ==> Algorithm <==

  SCF Algorithm Type is DF.
  DIIS enabled.
  MOM disabled.
  Fractional occupation disabled.
  Guess Type is SAD.
  Energy threshold   = 1.00e-08
  Density threshold  = 1.00e-08
  Integral threshold = 0.00e+00

  ==> Primary Basis <==

  Basis Set: 6-311++G(D,P)
    Blend: 6-311++G(D,P)
    Number of shells: 79
    Number of basis function: 153
    Number of Cartesian functions: 158
    Spherical Harmonics?: true
    Max angular momentum: 2

  ==> DFT Potential <==

   => Composite Functional: M06-2X <= 

    Hybrid M06-2X Meta-GGA XC Functional

    Y. Zhao and D. G. Truhlar,  Theor. Chem. Acc., 120, 215, 2008


    Deriv               =              1
    GGA                 =           TRUE
    Meta                =           TRUE

    Exchange Hybrid     =           TRUE
    MP2 Hybrid          =          FALSE

   => Exchange Functionals <=

    1.0000   XC_HYB_MGGA_X_M06_2X

   => Exact (HF) Exchange <=

    0.5400               HF 

   => Correlation Functionals <=

    1.0000   XC_MGGA_C_M06_2X

   => Molecular Quadrature <=

    Radial Scheme       =       TREUTLER
    Pruning Scheme      =           FLAT
    Nuclear Scheme      =       TREUTLER

    BS radius alpha     =              1
    Pruning alpha       =              1
    Radial Points       =             75
    Spherical Points    =            302
    Total Points        =         226364
    Total Blocks        =           1748
    Max Points          =            256
    Max Functions       =            150

   => Loading Basis Set <=

    Name: (6-311++G(D,P) AUX)
    Role: JKFIT
    Keyword: DF_BASIS_SCF
    atoms 1, 6         entry C          line   162 file /root/psi4conda/share/psi4/basis/aug-cc-pvtz-jkfit.gbs 
    atoms 2-3          entry O          line   286 file /root/psi4conda/share/psi4/basis/aug-cc-pvtz-jkfit.gbs 
    atoms 4-5, 7-8, 10 entry H          line    70 file /root/psi4conda/share/psi4/basis/aug-cc-pvtz-jkfit.gbs 
    atoms 9            entry CL         line   816 file /root/psi4conda/share/psi4/basis/aug-cc-pvtz-jkfit.gbs 

  ==> Pre-Iterations <==

   -------------------------------------------------------
    Irrep   Nso     Nmo     Nalpha   Nbeta   Ndocc  Nsocc
   -------------------------------------------------------
     A        153     153       0       0       0       0
   -------------------------------------------------------
    Total     153     153      25      25      25       0
   -------------------------------------------------------

  ==> Integral Setup <==

  DFHelper Memory: AOs need 0.176 [GiB]; user supplied 0.366 [GiB]. Using in-core AOs.

  ==> MemDFJK: Density-Fitted J/K Matrices <==

    J tasked:                   Yes
    K tasked:                   Yes
    wK tasked:                   No
    OpenMP threads:              16
    Memory (MB):                375
    Algorithm:                 Core
    Schwarz Cutoff:           1E-12
    Mask sparsity (%):       3.4346
    Fitting Condition:        1E-12

   => Auxiliary Basis Set <=

  Basis Set: (6-311++G(D,P) AUX)
    Blend: AUG-CC-PVTZ-JKFIT
    Number of shells: 232
    Number of basis function: 792
    Number of Cartesian functions: 979
    Spherical Harmonics?: true
    Max angular momentum: 4

  Minimum eigenvalue in the overlap matrix is 2.0310777627E-04.
  Using Symmetric Orthogonalization.

  SCF Guess: Superposition of Atomic Densities via on-the-fly atomic UHF.

  ==> Iterations <==

                           Total Energy        Delta E     RMS |[F,P]|

   @DF-RKS iter   0:  -690.94321195747568   -6.90943e+02   1.02411e-01 
   @DF-RKS iter   1:  -689.62956798721302    1.31364e+00   1.03106e-02 
   @DF-RKS iter   2:  -689.59398853105904    3.55795e-02   1.58779e-02 DIIS
   @DF-RKS iter   3:  -689.75449300865148   -1.60504e-01   2.25014e-03 DIIS
   @DF-RKS iter   4:  -689.75681648095292   -2.32347e-03   1.02474e-03 DIIS
   @DF-RKS iter   5:  -689.75746462641587   -6.48145e-04   4.06361e-04 DIIS
   @DF-RKS iter   6:  -689.75756327907573   -9.86527e-05   6.34567e-05 DIIS
   @DF-RKS iter   7:  -689.75756843201907   -5.15294e-06   2.30220e-05 DIIS
   @DF-RKS iter   8:  -689.75756923037795   -7.98359e-07   9.21763e-06 DIIS
[...]


  ==> Harmonic Vibrational Analysis <==

  non-mass-weighted Hessian:       Symmetric? True   Hermitian? True   Lin Dep Dim?  6 (0)
  projection of translations (True) and rotations (True) removed 6 degrees of freedom (6)
  total projector:                 Symmetric? True   Hermitian? True   Lin Dep Dim?  6 (6)
  mass-weighted Hessian:           Symmetric? True   Hermitian? True   Lin Dep Dim?  6 (0)
  pre-proj  low-frequency mode:    0.0000i [cm^-1]
  pre-proj  low-frequency mode:    0.0000i [cm^-1]
  pre-proj  low-frequency mode:    0.0000i [cm^-1]
  pre-proj  low-frequency mode:    0.0000i [cm^-1]
  pre-proj  low-frequency mode:    0.0000i [cm^-1]
  pre-proj  low-frequency mode:    0.0000  [cm^-1]
  pre-proj  low-frequency mode:    0.0000  [cm^-1]
  pre-proj  low-frequency mode:   84.2428  [cm^-1]
  pre-proj  all modes:['1507.8844i' '0.0000i' '0.0000i' '0.0000i' '0.0000i' '0.0000' '0.0000'
 '84.2428' '192.7000' '257.2152' '293.1870' '417.3890' '635.9980'
 '761.0327' '777.7204' '1065.3620' '1136.5255' '1187.6367' '1238.7897'
 '1260.1005' '1335.9551' '1457.5353' '1494.0584' '1504.4065' '1513.3434'
 '2178.2134' '3072.1513' '3078.1063' '3163.7837' '3193.0408']
  projected mass-weighted Hessian: Symmetric? True   Hermitian? True   Lin Dep Dim?  6 (6)
  post-proj low-frequency mode: 1507.8844i [cm^-1] (V)
  post-proj low-frequency mode:    0.0000i [cm^-1] (TR)
  post-proj low-frequency mode:    0.0000i [cm^-1] (TR)
  post-proj low-frequency mode:    0.0000i [cm^-1] (TR)
  post-proj low-frequency mode:    0.0000  [cm^-1] (TR)
  post-proj low-frequency mode:    0.0000  [cm^-1] (TR)
  post-proj low-frequency mode:    0.0000  [cm^-1] (TR)
  post-proj low-frequency mode:   84.2428  [cm^-1] (V)
  post-proj  all modes:['1507.8844i' '0.0000i' '0.0000i' '0.0000i' '0.0000' '0.0000' '0.0000'
 '84.2428' '192.7000' '257.2152' '293.1870' '417.3890' '635.9980'
 '761.0327' '777.7204' '1065.3620' '1136.5255' '1187.6367' '1238.7897'
 '1260.1005' '1335.9551' '1457.5353' '1494.0584' '1504.4065' '1513.3434'
 '2178.2134' '3072.1513' '3078.1063' '3163.7837' '3193.0408']

  Vibration                       1                   8                   9           
  Freq [cm^-1]                1507.8844i           84.2428             192.7000       
  Irrep                           A                   A                   A           
  Reduced mass [u]              1.1859              3.1182              1.1539        
  Force const [mDyne/A]        -1.5886              0.0130              0.0252        
  Turning point v=0 [a0]        0.0000              0.6770              0.7358        
  RMS dev v=0 [a0 u^1/2]        0.0000              0.8453              0.5589        
  Char temp [K]                 0.0000             121.2065            277.2520       
  ----------------------------------------------------------------------------------
      1   C               -0.07 -0.06 -0.04   -0.09 -0.02 -0.06   -0.00 -0.01 -0.02   
      2   O                0.01 -0.05  0.02   -0.15 -0.03  0.03   -0.00 -0.04 -0.02   
      3   O               -0.01  0.04 -0.01   -0.08 -0.04 -0.15   -0.03 -0.03  0.00   
      4   H                0.63  0.73  0.19   -0.02 -0.06 -0.22   -0.02 -0.01 -0.00   
      5   H                0.03  0.01 -0.01    0.09 -0.02  0.11    0.24  0.10  0.57   
      6   C                0.00  0.01 -0.01    0.11  0.00  0.24   -0.01 -0.01  0.05   
      7   H               -0.01 -0.01  0.01    0.51 -0.09  0.34   -0.24  0.41 -0.24   
      8   H               -0.04 -0.01  0.02   -0.12  0.16  0.57   -0.00 -0.55 -0.13   
      9   CL               0.00  0.00  0.00    0.09  0.04 -0.02    0.02  0.04 -0.00   
     10   H                0.03  0.05  0.01   -0.12 -0.04 -0.11   -0.00 -0.02 -0.01   

  Vibration                       10                  11                  12          
  Freq [cm^-1]                 257.2152            293.1870            417.3890       
  Irrep                           A                   A                   A           
  Reduced mass [u]              3.5456              4.8463             13.6322        
  Force const [mDyne/A]         0.1382              0.2454              1.3993        
  Turning point v=0 [a0]        0.3633              0.2911              0.1455        
  RMS dev v=0 [a0 u^1/2]        0.4838              0.4531              0.3798        
  Char temp [K]                370.0749            421.8301            600.5289       
  ----------------------------------------------------------------------------------
      1   C               -0.00 -0.12  0.02   -0.03 -0.17 -0.12   -0.21  0.05 -0.19   
      2   O               -0.07  0.00  0.13   -0.04  0.04 -0.11    0.04  0.21 -0.55   
      3   O                0.16 -0.11 -0.13    0.09 -0.25  0.26   -0.03 -0.10 -0.13   
      4   H                0.06 -0.11 -0.03   -0.04  0.08  0.35    0.05  0.16 -0.28   
      5   H               -0.15  0.33  0.22   -0.51 -0.01 -0.09   -0.17  0.08  0.05   
      6   C                0.09  0.27 -0.08   -0.11  0.03  0.07   -0.01  0.07 -0.06   
      7   H                0.20  0.56 -0.24   -0.05 -0.07  0.13    0.09  0.16 -0.10   
      8   H                0.16  0.29 -0.16    0.06  0.42 -0.02   -0.01  0.13 -0.03   
      9   CL              -0.07 -0.02  0.03    0.04  0.14 -0.06    0.08 -0.10  0.40   
     10   H               -0.09 -0.24 -0.01   -0.15 -0.34 -0.15   -0.30 -0.23  0.10   

  Vibration                       13                  14                  15          
  Freq [cm^-1]                 635.9980            761.0327            777.7204       
  Irrep                           A                   A                   A           
  Reduced mass [u]              5.2118              7.3292              3.9206        
  Force const [mDyne/A]         1.2421              2.5010              1.3972        
  Turning point v=0 [a0]        0.1906              0.1469              0.1987        
  RMS dev v=0 [a0 u^1/2]        0.3077              0.2813              0.2782        
  Char temp [K]                915.0581           1094.9549           1118.9649       
  ----------------------------------------------------------------------------------
      1   C                0.23  0.38 -0.24    0.16 -0.27  0.06   -0.17  0.20  0.35   
      2   O               -0.00 -0.01  0.12    0.23  0.37  0.12    0.05  0.02 -0.06   
      3   O               -0.03 -0.25 -0.05   -0.10 -0.08 -0.23    0.02 -0.17 -0.04   
      4   H               -0.04  0.59  0.21    0.19  0.12 -0.11    0.39  0.15 -0.31   
      5   H               -0.27 -0.04  0.14   -0.10 -0.07  0.15   -0.36  0.01  0.17   
      6   C               -0.03 -0.05  0.01   -0.28 -0.09  0.09   -0.03 -0.02 -0.00   
      7   H                0.07  0.01 -0.01   -0.02 -0.04  0.07    0.01  0.13 -0.08   
      8   H               -0.11  0.02  0.11   -0.43 -0.16  0.26    0.06  0.12 -0.07   
      9   CL              -0.05 -0.02  0.04   -0.01  0.01 -0.01    0.04 -0.01 -0.08   
     10   H                0.22  0.28 -0.11    0.12 -0.35  0.03   -0.13  0.19  0.49   

  Vibration                       16                  17                  18          
  Freq [cm^-1]                1065.3620           1136.5255           1187.6367       
  Irrep                           A                   A                   A           
  Reduced mass [u]              1.7831              2.2465              1.2897        
  Force const [mDyne/A]         1.1924              1.7097              1.0718        
  Turning point v=0 [a0]        0.2518              0.2172              0.2804        
  RMS dev v=0 [a0 u^1/2]        0.2377              0.2301              0.2251        
  Char temp [K]               1532.8163           1635.2047           1708.7421       
  ----------------------------------------------------------------------------------
      1   C               -0.01 -0.02  0.06   -0.04  0.05  0.02    0.00 -0.05 -0.01   
      2   O                0.05  0.03 -0.01   -0.01 -0.06 -0.03   -0.01  0.02 -0.00   
      3   O               -0.13 -0.06  0.04    0.20  0.06 -0.06   -0.03  0.04  0.04   
      4   H               -0.44  0.24  0.54   -0.36  0.10  0.53    0.02 -0.07 -0.02   
      5   H                0.29  0.08 -0.01    0.09  0.01  0.20   -0.41 -0.03  0.37   
      6   C                0.12  0.05 -0.13   -0.18 -0.04  0.01    0.03 -0.11 -0.06   
      7   H                0.34 -0.01 -0.05    0.30  0.03  0.01    0.46  0.30 -0.27   
      8   H               -0.21 -0.09  0.23   -0.45 -0.05  0.35   -0.02  0.26  0.12   
      9   CL               0.00  0.00 -0.01    0.00 -0.01 -0.00   -0.00  0.00  0.01   
     10   H               -0.09 -0.19  0.18   -0.11 -0.07  0.09    0.24  0.38 -0.08   

  Vibration                       19                  20                  21          
  Freq [cm^-1]                1238.7897           1260.1005           1335.9551       
  Irrep                           A                   A                   A           
  Reduced mass [u]              1.2926              1.2403              1.1464        
  Force const [mDyne/A]         1.1687              1.1604              1.2055        
  Turning point v=0 [a0]        0.2742              0.2776              0.2804        
  RMS dev v=0 [a0 u^1/2]        0.2204              0.2186              0.2123        
  Char temp [K]               1782.3398           1813.0013           1922.1390       
  ----------------------------------------------------------------------------------
      1   C                0.02 -0.05  0.02   -0.02 -0.05  0.01    0.04 -0.00 -0.07   
      2   O               -0.06  0.03 -0.03   -0.01  0.01 -0.02   -0.05  0.01  0.00   
      3   O                0.03 -0.06  0.02    0.00  0.00 -0.08    0.00  0.03  0.02   
      4   H                0.12 -0.11 -0.08   -0.40  0.18  0.45    0.10 -0.05 -0.13   
      5   H                0.40  0.06 -0.13   -0.17 -0.06 -0.11   -0.03  0.00  0.06   
      6   C               -0.04  0.07 -0.03    0.04 -0.02  0.09   -0.01 -0.01 -0.01   
      7   H                0.07 -0.15  0.11   -0.30  0.04  0.01    0.03  0.00 -0.01   
      8   H               -0.22 -0.19  0.11    0.35  0.10 -0.25   -0.04  0.03  0.04   
      9   CL              -0.00  0.00  0.01    0.00  0.00 -0.00    0.01 -0.00 -0.01   
     10   H                0.46  0.64  0.07    0.28  0.33  0.25    0.18 -0.29  0.91   

  Vibration                       22                  23                  24          
  Freq [cm^-1]                1457.5353           1494.0584           1504.4065       
  Irrep                           A                   A                   A           
  Reduced mass [u]              1.8474              1.4216              1.1091        
  Force const [mDyne/A]         2.3123              1.8697              1.4789        
  Turning point v=0 [a0]        0.2115              0.2381              0.2686        
  RMS dev v=0 [a0 u^1/2]        0.2032              0.2007              0.2000        
  Char temp [K]               2097.0656           2149.6142           2164.5026       
  ----------------------------------------------------------------------------------
      1   C                0.16 -0.02  0.11    0.11  0.01  0.08    0.05 -0.00  0.03   
      2   O               -0.11 -0.00 -0.08   -0.07 -0.00 -0.05   -0.03 -0.00 -0.02   
      3   O                0.01  0.03 -0.02   -0.02 -0.01 -0.00   -0.01  0.01 -0.01   
      4   H                0.10  0.14  0.10    0.09  0.17  0.03    0.00  0.10  0.04   
      5   H               -0.52  0.03  0.14    0.57 -0.08 -0.21    0.16  0.13  0.59   
      6   C                0.09  0.02 -0.03   -0.04 -0.06  0.03   -0.04  0.01 -0.03   
      7   H               -0.50 -0.17  0.04   -0.03  0.42 -0.25    0.18 -0.48  0.30   
      8   H               -0.31 -0.17  0.39    0.12  0.52  0.02    0.29  0.19 -0.34   
      9   CL              -0.00 -0.00  0.00   -0.00 -0.00  0.00   -0.00 -0.00  0.00   
     10   H                0.02 -0.14 -0.15   -0.03 -0.16 -0.08   -0.00 -0.06 -0.05   

  Vibration                       25                  26                  27          
  Freq [cm^-1]                1513.3434           2178.2134           3072.1513       
  Irrep                           A                   A                   A           
  Reduced mass [u]              1.1951              1.0540              1.0472        
  Force const [mDyne/A]         1.6125              2.9464              5.8232        
  Turning point v=0 [a0]        0.2580              0.2290              0.1935        
  RMS dev v=0 [a0 u^1/2]        0.1994              0.1662              0.1400        
  Char temp [K]               2177.3609           3133.9594           4420.1350       
  ----------------------------------------------------------------------------------
      1   C                0.07  0.00  0.05    0.00  0.04 -0.01   -0.03  0.02  0.01   
      2   O               -0.05 -0.00 -0.03   -0.00  0.01 -0.01    0.00  0.00  0.00   
      3   O               -0.01  0.01  0.00   -0.03 -0.00 -0.03    0.00  0.00 -0.00   
      4   H                0.05  0.12  0.05    0.52 -0.57  0.63   -0.01 -0.01 -0.00   
      5   H               -0.25 -0.07 -0.34    0.01 -0.01  0.00    0.01 -0.35  0.06   
      6   C               -0.04  0.02  0.05    0.00 -0.00  0.01    0.03 -0.01 -0.03   
      7   H                0.59  0.12  0.02    0.00  0.01  0.01   -0.05  0.37  0.58   
      8   H                0.15 -0.52 -0.36    0.03  0.02 -0.03   -0.31  0.08 -0.26   
      9   CL              -0.00 -0.00  0.00   -0.00 -0.00 -0.00    0.00 -0.00  0.00   
     10   H               -0.01 -0.11 -0.02   -0.04 -0.01  0.01    0.39 -0.24 -0.13   

  Vibration                       28                  29                  30          
  Freq [cm^-1]                3078.1063           3163.7837           3193.0408       
  Irrep                           A                   A                   A           
  Reduced mass [u]              1.0769              1.1024              1.1075        
  Force const [mDyne/A]         6.0115              6.5016              6.6530        
  Turning point v=0 [a0]        0.1906              0.1858              0.1845        
  RMS dev v=0 [a0 u^1/2]        0.1398              0.1379              0.1373        
  Char temp [K]               4428.7029           4551.9735           4594.0678       
  ----------------------------------------------------------------------------------
      1   C               -0.06  0.04  0.02    0.00 -0.00 -0.00    0.00 -0.00 -0.00   
      2   O                0.00 -0.00 -0.00    0.00  0.00  0.00   -0.00  0.00  0.00   
      3   O               -0.00 -0.00  0.00   -0.00 -0.00  0.00   -0.00  0.00 -0.00   
      4   H               -0.00 -0.01  0.01    0.00  0.00 -0.00   -0.00 -0.00  0.00   
      5   H               -0.00  0.21 -0.04   -0.02  0.39 -0.10   -0.02  0.80 -0.16   
      6   C               -0.02  0.00  0.02   -0.04 -0.05 -0.07    0.04 -0.08  0.04   
      7   H                0.03 -0.20 -0.32   -0.05  0.32  0.50    0.00  0.03  0.08   
      8   H                0.17 -0.04  0.15    0.52 -0.15  0.42   -0.42  0.10 -0.35   
      9   CL               0.00 -0.00  0.00   -0.00 -0.00  0.00   -0.00  0.00 -0.00   
     10   H                0.71 -0.44 -0.23   -0.01  0.01  0.00   -0.01  0.01  0.00   

  ==> Thermochemistry Components <==

  Entropy, S
    Electronic S            0.000 [cal/(mol K)]        0.000 [J/(mol K)]       0.00000000 [mEh/K] (multiplicity = 1)
    Translational S        39.596 [cal/(mol K)]      165.671 [J/(mol K)]       0.06310072 [mEh/K] (mol. weight = 95.9978 [u], P = 101325.00 [Pa])
    Rotational S           26.599 [cal/(mol K)]      111.290 [J/(mol K)]       0.04238820 [mEh/K] (symmetry no. = 1)
    Vibrational S          11.197 [cal/(mol K)]       46.848 [J/(mol K)]       0.01784362 [mEh/K]
  Total S                  77.392 [cal/(mol K)]      323.810 [J/(mol K)]       0.12333254 [mEh/K]
  Correction S              0.000 [cal/(mol K)]        0.000 [J/(mol K)]       0.00000000 [mEh/K]

  Constant volume heat capacity, Cv
    Electronic Cv           0.000 [cal/(mol K)]        0.000 [J/(mol K)]       0.00000000 [mEh/K]
    Translational Cv        2.981 [cal/(mol K)]       12.472 [J/(mol K)]       0.00475022 [mEh/K]
    Rotational Cv           2.981 [cal/(mol K)]       12.472 [J/(mol K)]       0.00475022 [mEh/K]
    Vibrational Cv         12.612 [cal/(mol K)]       52.767 [J/(mol K)]       0.02009784 [mEh/K]
  Total Cv                 18.573 [cal/(mol K)]       77.710 [J/(mol K)]       0.02959829 [mEh/K]
  Correction Cv             0.000 [cal/(mol K)]        0.000 [J/(mol K)]       0.00000000 [mEh/K]

  Constant pressure heat capacity, Cp
    Electronic Cp           0.000 [cal/(mol K)]        0.000 [J/(mol K)]       0.00000000 [mEh/K]
    Translational Cp        4.968 [cal/(mol K)]       20.786 [J/(mol K)]       0.00791704 [mEh/K]
    Rotational Cp           2.981 [cal/(mol K)]       12.472 [J/(mol K)]       0.00475022 [mEh/K]
    Vibrational Cp         12.612 [cal/(mol K)]       52.767 [J/(mol K)]       0.02009784 [mEh/K]
  Total Cp                 20.560 [cal/(mol K)]       86.025 [J/(mol K)]       0.03276510 [mEh/K]
  Correction Cp             0.000 [cal/(mol K)]        0.000 [J/(mol K)]       0.00000000 [mEh/K]

  ==> Thermochemistry Energy Analysis <==

  Raw electronic energy, E0
  Total E0, Electronic energy at well bottom at 0 [K]                 -689.75756956 [Eh]

  Zero-point energy, ZPE_vib = Sum_i nu_i / 2
    Electronic ZPE          0.000 [kcal/mol]        0.000 [kJ/mol]       0.00000000 [Eh]
    Translational ZPE       0.000 [kcal/mol]        0.000 [kJ/mol]       0.00000000 [Eh]
    Rotational ZPE          0.000 [kcal/mol]        0.000 [kJ/mol]       0.00000000 [Eh]
    Vibrational ZPE        44.743 [kcal/mol]      187.207 [kJ/mol]       0.07130320 [Eh]       15649.241 [cm^-1]
  Correction ZPE           44.743 [kcal/mol]      187.207 [kJ/mol]       0.07130320 [Eh]       15649.241 [cm^-1]
  Total ZPE, Electronic energy at 0 [K]                               -689.68626636 [Eh]

  Thermal Energy, E (includes ZPE)
    Electronic E            0.000 [kcal/mol]        0.000 [kJ/mol]       0.00000000 [Eh]
    Translational E         0.889 [kcal/mol]        3.718 [kJ/mol]       0.00141628 [Eh]
    Rotational E            0.889 [kcal/mol]        3.718 [kJ/mol]       0.00141628 [Eh]
    Vibrational E          46.612 [kcal/mol]      195.025 [kJ/mol]       0.07428096 [Eh]
  Correction E             48.389 [kcal/mol]      202.462 [kJ/mol]       0.07711352 [Eh]
  Total E, Electronic energy at  298.15 [K]                           -689.68045604 [Eh]

  Enthalpy, H_trans = E_trans + k_B * T
    Electronic H            0.000 [kcal/mol]        0.000 [kJ/mol]       0.00000000 [Eh]
    Translational H         1.481 [kcal/mol]        6.197 [kJ/mol]       0.00236046 [Eh]
    Rotational H            0.889 [kcal/mol]        3.718 [kJ/mol]       0.00141628 [Eh]
    Vibrational H          46.612 [kcal/mol]      195.025 [kJ/mol]       0.07428096 [Eh]
  Correction H             48.982 [kcal/mol]      204.940 [kJ/mol]       0.07805770 [Eh]
  Total H, Enthalpy at  298.15 [K]                                    -689.67951186 [Eh]

  Gibbs free energy, G = H - T * S
    Electronic G            0.000 [kcal/mol]        0.000 [kJ/mol]       0.00000000 [Eh]
    Translational G       -10.324 [kcal/mol]      -43.197 [kJ/mol]      -0.01645302 [Eh]
    Rotational G           -7.042 [kcal/mol]      -29.463 [kJ/mol]      -0.01122176 [Eh]
    Vibrational G          43.274 [kcal/mol]      181.057 [kJ/mol]       0.06896088 [Eh]
  Correction G             25.907 [kcal/mol]      108.397 [kJ/mol]       0.04128610 [Eh]
  Total G, Free enthalpy at  298.15 [K]                               -689.71628345 [Eh]

    Psi4 stopped on: Thursday, 17 January 2019 01:45PM
    Psi4 wall time for execution: 0:10:59.75

*** Psi4 exiting successfully. Buy a developer a beer!
