[Molden Format]

[FREQ]
       -1507.8844167857
          84.2428362929
         192.7000406930
         257.2152180096
         293.1869807374
         417.3889733748
         635.9980105360
         761.0326918284
         777.7204445354
        1065.3619579228
        1136.5255326906
        1187.6366511632
        1238.7896808450
        1260.1004693661
        1335.9550801337
        1457.5352825803
        1494.0584316024
        1504.4064621539
        1513.3433802640
        2178.2134345740
        3072.1512881109
        3078.1062996177
        3163.7837447741
        3193.0407781815

[FR-COORD]
C         -0.1215738327       -0.8651000199       -0.6740087120
O         -2.0921710999       -0.7905686897       -2.0719882230
O          0.5415837876        2.0387512265       -0.9347220378
H         -1.2444659130        1.6218596306       -2.0961060335
H          2.8049828035        4.6729642083       -2.6132778254
C          2.8501562559        2.6597681378       -2.2024328526
H          3.0291853935        1.5741200437       -3.9502060870
H          4.4119645372        2.2440007045       -0.9291122679
CL        -0.5320209720       -1.4233097937        2.6742531420
H          1.5782307270       -1.9062423173       -1.2328105779

[FR-NORM-COORD]
vibration 1
          -0.0707295796       -0.0622031350       -0.0368385258
           0.0140229081       -0.0472294549        0.0191939100
          -0.0053127226        0.0360424749       -0.0062298381
           0.6341718563        0.7337466981        0.1926403440
           0.0290488089        0.0085498706       -0.0138251712
           0.0028769749        0.0110925569       -0.0105960202
          -0.0091983364       -0.0127252114        0.0087578759
          -0.0395884834       -0.0121687522        0.0244287483
           0.0006765724        0.0004470359        0.0039515545
           0.0317632634        0.0531968236        0.0099355372
vibration 2
          -0.0943401851       -0.0180576185       -0.0550335876
          -0.1495925387       -0.0339776683        0.0263724291
          -0.0835355466       -0.0418378766       -0.1548923659
          -0.0229023569       -0.0578697894       -0.2194637112
           0.0890873370       -0.0245220073        0.1095556278
           0.1137485270        0.0023385037        0.2384740274
           0.5113280695       -0.0939852122        0.3398499871
          -0.1158215911        0.1551423603        0.5705303086
           0.0901898363        0.0417071866       -0.0239502596
          -0.1222192222       -0.0354814653       -0.1139510256
vibration 3
          -0.0037789999       -0.0125952199       -0.0227625229
          -0.0035814110       -0.0350575907       -0.0237684527
          -0.0259581095       -0.0277482125        0.0041649031
          -0.0192192195       -0.0059013935       -0.0009307511
           0.2412094041        0.0987615017        0.5676474703
          -0.0071928257       -0.0127036224        0.0458618259
          -0.2395061225        0.4072824379       -0.2380243156
          -0.0023247643       -0.5502946594       -0.1343747220
           0.0179407981        0.0393413061       -0.0041591187
          -0.0032040808       -0.0168840946       -0.0139241921
vibration 4
          -0.0014547107       -0.1242192637        0.0153654263
          -0.0742918301        0.0018569147        0.1292544983
           0.1565163533       -0.1135404124       -0.1334357475
           0.0556219904       -0.1071993095       -0.0268849896
          -0.1505997548        0.3329385683        0.2183489563
           0.0876667154        0.2747826751       -0.0760813973
           0.1955486815        0.5619727369       -0.2430187477
           0.1608806019        0.2875987489       -0.1619704704
          -0.0722726531       -0.0245557261        0.0293241665
          -0.0852567749       -0.2435268404       -0.0146513428
vibration 5
          -0.0289348825       -0.1667243501       -0.1194102410
          -0.0392581730        0.0379984330       -0.1077542810
           0.0905810698       -0.2529795579        0.2598100589
          -0.0360036262        0.0793658468        0.3542722930
          -0.5090363702       -0.0109123107       -0.0904746732
          -0.1069651864        0.0293065317        0.0656014485
          -0.0493629738       -0.0697675030        0.1333101418
           0.0606065927        0.4167318336       -0.0163378194
           0.0427539132        0.1432248850       -0.0577329259
          -0.1460436715       -0.3368242094       -0.1501341705
vibration 6
          -0.2073477523        0.0547152912       -0.1899071556
           0.0423060701        0.2100983151       -0.5462619736
          -0.0256488423       -0.1018303902       -0.1344820021
           0.0528196697        0.1643231070       -0.2814309958
          -0.1673233053        0.0836380678        0.0497861120
          -0.0058771594        0.0655446524       -0.0550367823
           0.0882030776        0.1603432548       -0.1023634399
          -0.0136421635        0.1266648771       -0.0319383184
           0.0753132265       -0.0996829509        0.4029634625
          -0.2987560666       -0.2264406671        0.1045908268
vibration 7
           0.2260848043        0.3795449255       -0.2407024873
          -0.0049640541       -0.0103457432        0.1249213203
          -0.0317936533       -0.2544474049       -0.0499047151
          -0.0365574642        0.5859905915        0.2086064792
          -0.2748937569       -0.0366163542        0.1411265369
          -0.0322992365       -0.0481289519        0.0065479012
           0.0671865992        0.0086069577       -0.0056991905
          -0.1109371179        0.0221032106        0.1116558042
          -0.0458390856       -0.0175024221        0.0359722990
           0.2216962319        0.2835493662       -0.1063623140
vibration 8
           0.1579375050       -0.2748741932        0.0572127893
           0.2299854756        0.3686161329        0.1220128136
          -0.1022483356       -0.0831378500       -0.2297052316
           0.1867651585        0.1242328259       -0.1105780410
          -0.0967764099       -0.0737382245        0.1549430577
          -0.2810253212       -0.0936717053        0.0948792653
          -0.0209936898       -0.0372823021        0.0739380528
          -0.4291844182       -0.1554668334        0.2620744736
          -0.0093063235        0.0101352467       -0.0147940456
           0.1213985061       -0.3519462552        0.0311593459
vibration 9
          -0.1688303051        0.1956720395        0.3462553870
           0.0538154213        0.0187637750       -0.0580428689
           0.0160806592       -0.1749138568       -0.0376308439
           0.3910001643        0.1455227090       -0.3107100235
          -0.3558498118        0.0114032035        0.1709401345
          -0.0280662849       -0.0157625440       -0.0010410083
           0.0084530472        0.1310158436       -0.0839291937
           0.0552813526        0.1169604540       -0.0696469545
           0.0363494275       -0.0073287149       -0.0804581545
          -0.1250009295        0.1854483104        0.4930331546
vibration 10
          -0.0140990363       -0.0179881798        0.0577747676
           0.0470000189        0.0253559518       -0.0086353897
          -0.1293992059       -0.0550184489        0.0363406283
          -0.4443604760        0.2435319291        0.5371575120
           0.2919276592        0.0789342843       -0.0051996683
           0.1189366369        0.0548428250       -0.1265804125
           0.3401059059       -0.0107593912       -0.0513085463
          -0.2130193230       -0.0895534921        0.2292465360
           0.0049049559        0.0000843117       -0.0147528012
          -0.0853911679       -0.1931353129        0.1815419819
vibration 11
          -0.0434716597        0.0492198025        0.0234547017
          -0.0084174585       -0.0597693348       -0.0325935189
           0.2035052347        0.0640794054       -0.0604923756
          -0.3613622633        0.1026735951        0.5254870107
           0.0885541575        0.0089899658        0.2005622624
          -0.1802719970       -0.0407748474        0.0084299258
           0.3044626233        0.0260716914        0.0115910196
          -0.4476330090       -0.0526447414        0.3458507221
           0.0027299011       -0.0052499331       -0.0021433512
          -0.1108490185       -0.0718883531        0.0885734811
vibration 12
           0.0028051028       -0.0512655453       -0.0059508443
          -0.0125780519        0.0196452444       -0.0038618613
          -0.0250583233        0.0421528371        0.0359258998
           0.0249308382       -0.0661975192       -0.0189254813
          -0.4079452018       -0.0325461626        0.3709621855
           0.0261120126       -0.1118775033       -0.0619455720
           0.4598694580        0.3011991169       -0.2732113713
          -0.0178532625        0.2609574162        0.1153327724
          -0.0014285603        0.0035444359        0.0054087744
           0.2435708639        0.3753405636       -0.0822767801
vibration 13
           0.0185372808       -0.0499754349        0.0237327214
          -0.0627964378        0.0255078631       -0.0316933837
           0.0267710360       -0.0641521541        0.0208332092
           0.1159514125       -0.1059915821       -0.0801624604
           0.3978678869        0.0598173734       -0.1331766929
          -0.0386827603        0.0702856079       -0.0332165578
           0.0655128811       -0.1461066375        0.1074362578
          -0.2196817539       -0.1913825109        0.1076723136
          -0.0003114344        0.0032088866        0.0061094301
           0.4627735621        0.6438067047        0.0715308453
vibration 14
          -0.0216010902       -0.0472414835        0.0111798338
          -0.0053405588        0.0101234887       -0.0168313657
           0.0027041954        0.0029436244       -0.0768802039
          -0.4005025547        0.1776712121        0.4510020520
          -0.1724969900       -0.0639399453       -0.1066599044
           0.0377349350       -0.0206601522        0.0883333940
          -0.3038198491        0.0427665887        0.0120163099
           0.3508287039        0.1032630876       -0.2488246874
           0.0026416741        0.0003599581       -0.0015489894
           0.2840696862        0.3288580448        0.2485957055
vibration 15
           0.0372184418       -0.0017366519       -0.0704749788
          -0.0540052988        0.0074405614        0.0040997459
           0.0000327297        0.0265225281        0.0205640433
           0.1001622307       -0.0472004779       -0.1298774627
          -0.0257015799        0.0047712494        0.0644150469
          -0.0055469092       -0.0101599834       -0.0117142054
           0.0252473728        0.0024937722       -0.0130452165
          -0.0352449881        0.0288953288        0.0368020443
           0.0066533137       -0.0028258230       -0.0081937792
           0.1841609687       -0.2882789931        0.9131882730
vibration 16
           0.1610822495       -0.0237017210        0.1132684611
          -0.1132736941       -0.0005204829       -0.0788604035
           0.0081987779        0.0275915852       -0.0235685588
           0.0981361819        0.1400071002        0.0985519543
          -0.5173213961        0.0298860030        0.1432031032
           0.0895243947        0.0153964188       -0.0294946286
          -0.5017204007       -0.1743041477        0.0409836428
          -0.3138231451       -0.1719968940        0.3864525982
          -0.0030122283       -0.0003392847        0.0030004008
           0.0229298752       -0.1425680132       -0.1451559475
vibration 17
           0.1149499278        0.0052401603        0.0756971036
          -0.0742905033       -0.0038614421       -0.0511688265
          -0.0203752120       -0.0065150505       -0.0011578111
           0.0885257398        0.1726039139        0.0268366170
           0.5679205013       -0.0807506177       -0.2085514065
          -0.0443244536       -0.0623207280        0.0327613533
          -0.0329474911        0.4151125387       -0.2544061521
           0.1188382624        0.5198992366        0.0167761306
          -0.0015150127       -0.0007445002        0.0011094861
          -0.0282819181       -0.1567018818       -0.0800859658
vibration 18
           0.0510826268       -0.0049217678        0.0342755459
          -0.0322485542       -0.0013835607       -0.0231662416
          -0.0141804858        0.0074139964       -0.0136266628
           0.0005516180        0.0967142111        0.0351680853
           0.1590461603        0.1301952090        0.5865378296
          -0.0389439498        0.0069772142       -0.0328592225
           0.1800195703       -0.4775386109        0.3042171625
           0.2873454713        0.1926324168       -0.3400462640
          -0.0008991619       -0.0000807701        0.0009878495
          -0.0034348771       -0.0593819563       -0.0530863936
vibration 19
           0.0748837770        0.0001171453        0.0466815535
          -0.0483386467       -0.0017513366       -0.0333989777
          -0.0122012503        0.0144445761        0.0023302524
           0.0451209720        0.1160173907        0.0459262061
          -0.2455268340       -0.0711703851       -0.3367753855
          -0.0356691824        0.0232948404        0.0471199064
           0.5879850253        0.1205080185        0.0243921306
           0.1470167079       -0.5160857275       -0.3556364055
          -0.0009503634       -0.0005642376        0.0006382649
          -0.0077301447       -0.1099051761       -0.0238473402
vibration 20
           0.0001773386        0.0376965169       -0.0115102672
          -0.0038940397        0.0129159213       -0.0080623885
          -0.0309081135       -0.0038298913       -0.0263996445
           0.5210732262       -0.5654860590        0.6333817794
           0.0100022861       -0.0072569066        0.0043777010
           0.0026889255       -0.0019623247        0.0052347233
           0.0031169783        0.0071384520        0.0117297363
           0.0299229187        0.0160907311       -0.0278241009
          -0.0001868060       -0.0002619830       -0.0002116737
          -0.0394264275       -0.0110788959        0.0073386972
vibration 21
          -0.0349133003        0.0193711805        0.0102616730
           0.0010217996        0.0002749763        0.0000815881
           0.0021632963        0.0008805338       -0.0001313745
          -0.0121758206       -0.0099060851       -0.0035132786
           0.0111927547       -0.3451943607        0.0631564500
           0.0279924980       -0.0085950229       -0.0318739624
          -0.0520757615        0.3664721512        0.5832641763
          -0.3094820899        0.0795643041       -0.2603463541
           0.0000908716       -0.0000022092        0.0000939900
           0.3912429371       -0.2375080015       -0.1276982234
vibration 22
          -0.0619721441        0.0389648262        0.0184150949
           0.0009225834       -0.0003334216       -0.0003296939
          -0.0000516122       -0.0005820551        0.0002359100
          -0.0006230364       -0.0147219117        0.0125682264
          -0.0027165606        0.2142793212       -0.0421930929
          -0.0158380661        0.0031391697        0.0179180715
           0.0295674874       -0.2007169371       -0.3235849172
           0.1730926835       -0.0430319278        0.1453681693
           0.0001495705       -0.0001138667        0.0001966268
           0.7081396245       -0.4386534605       -0.2301051841
vibration 23
           0.0008360196       -0.0002322506       -0.0003424290
           0.0001769013        0.0001603997        0.0001176998
          -0.0001170695       -0.0001859293        0.0003889763
           0.0029983593        0.0017719471       -0.0030657508
          -0.0201088217        0.3948688903       -0.0953700887
          -0.0381868740       -0.0473232242       -0.0700615313
          -0.0470672750        0.3186619188        0.5013420319
           0.5170396941       -0.1533284811        0.4241556793
          -0.0000234909       -0.0000134507        0.0000438678
          -0.0082662321        0.0051324915        0.0016626078
vibration 24
           0.0014891184       -0.0006365844       -0.0006028204
          -0.0000298543        0.0000218019        0.0000252129
          -0.0002766590        0.0003254702       -0.0002035368
          -0.0020695404       -0.0007030921        0.0024480761
          -0.0227584146        0.8044884671       -0.1556104999
           0.0371721664       -0.0798287937        0.0362381183
           0.0008565431        0.0341433877        0.0808185282
          -0.4190367386        0.1039593464       -0.3530191386
          -0.0000048346        0.0000274551       -0.0000110768
          -0.0122928097        0.0097352850        0.0042741101
