[Molden Format]
[Title]
CLPOs

[Atoms] AU
C    1   6         -3.7893129204        -0.3765053298         0.6900733075 
O    2   8         -4.1257767686        -0.1350833677         2.9256193227 
O    3   8         -5.1358523942        -0.2765558249        -1.3418150327 
N    4   7         -1.1801397028        -0.8513160283        -0.5739342672 
H    5   1         -2.9011057331        -0.5241307353        -2.3007641177 
H    6   1         -0.6423028584        -2.7051694900        -0.4016195898 
C    7   6          0.9006849853         0.8168642820         0.2259849151 
H    8   1          0.7162080304         1.1024321363         2.2804630414 
C    9   6          3.3850021075        -0.5841484373        -0.1753267751 
O   10   8          3.5432307663        -2.8126060898        -0.6941397465 
O   11   8          5.4073567793         0.9179457328         0.1859019341 
H   12   1          6.9209688302        -0.1179246544        -0.0186760376 
C   13   6          0.7683909279         3.3854310644        -1.1068956182 
H   14   1         -1.0600003639         4.2770454279        -0.7307815362 
H   15   1          2.2565899418         4.6355945054        -0.4107356286 
H   16   1          0.9840313564         3.1656124515        -3.1536088598 
[GTO]
  1 0 
s   6 1.0  
     3047.5249000000         0.0018347000 
      457.3695100000         0.0140373000 
      103.9486900000         0.0688426000 
       29.2101550000         0.2321844000 
        9.2866630000         0.4679413000 
        3.1639270000         0.3623120000 
s   3 1.0  
        7.8682724000        -0.1193324000 
        1.8812885000        -0.1608542000 
        0.5442493000         1.1434564000 
p   3 1.0  
        7.8682724000         0.0689991000 
        1.8812885000         0.3164240000 
        0.5442493000         0.7443083000 
s   1 1.0  
        0.1687144000         1.0000000000 
p   1 1.0  
        0.1687144000         1.0000000000 
d   1 1.0  
        0.8000000000         1.0000000000 
s2   1 1.0  
        0.8000000000         1.0000000000 
s   1 1.0  
        0.0438000000         1.0000000000 
p   1 1.0  
        0.0438000000         1.0000000000 

  2 0 
s   6 1.0  
     5484.6717000000         0.0018311000 
      825.2349500000         0.0139501000 
      188.0469600000         0.0684451000 
       52.9645000000         0.2327143000 
       16.8975700000         0.4701930000 
        5.7996353000         0.3585209000 
s   3 1.0  
       15.5396160000        -0.1107775000 
        3.5999336000        -0.1480263000 
        1.0137618000         1.1307670000 
p   3 1.0  
       15.5396160000         0.0708743000 
        3.5999336000         0.3397528000 
        1.0137618000         0.7271586000 
s   1 1.0  
        0.2700058000         1.0000000000 
p   1 1.0  
        0.2700058000         1.0000000000 
d   1 1.0  
        0.8000000000         1.0000000000 
s2   1 1.0  
        0.8000000000         1.0000000000 
s   1 1.0  
        0.0845000000         1.0000000000 
p   1 1.0  
        0.0845000000         1.0000000000 

  3 0 
s   6 1.0  
     5484.6717000000         0.0018311000 
      825.2349500000         0.0139501000 
      188.0469600000         0.0684451000 
       52.9645000000         0.2327143000 
       16.8975700000         0.4701930000 
        5.7996353000         0.3585209000 
s   3 1.0  
       15.5396160000        -0.1107775000 
        3.5999336000        -0.1480263000 
        1.0137618000         1.1307670000 
p   3 1.0  
       15.5396160000         0.0708743000 
        3.5999336000         0.3397528000 
        1.0137618000         0.7271586000 
s   1 1.0  
        0.2700058000         1.0000000000 
p   1 1.0  
        0.2700058000         1.0000000000 
d   1 1.0  
        0.8000000000         1.0000000000 
s2   1 1.0  
        0.8000000000         1.0000000000 
s   1 1.0  
        0.0845000000         1.0000000000 
p   1 1.0  
        0.0845000000         1.0000000000 

  4 0 
s   6 1.0  
     4173.5110000000         0.0018348000 
      627.4579000000         0.0139950000 
      142.9021000000         0.0685870000 
       40.2343300000         0.2322410000 
       12.8202100000         0.4690700000 
        4.3904370000         0.3604550000 
s   3 1.0  
       11.6263580000        -0.1149610000 
        2.7162800000        -0.1691180000 
        0.7722180000         1.1458520000 
p   3 1.0  
       11.6263580000         0.0675800000 
        2.7162800000         0.3239070000 
        0.7722180000         0.7408950000 
s   1 1.0  
        0.2120313000         1.0000000000 
p   1 1.0  
        0.2120313000         1.0000000000 
d   1 1.0  
        0.8000000000         1.0000000000 
s2   1 1.0  
        0.8000000000         1.0000000000 
s   1 1.0  
        0.0639000000         1.0000000000 
p   1 1.0  
        0.0639000000         1.0000000000 

  5 0 
s   3 1.0  
       18.7311370000         0.0334946000 
        2.8253937000         0.2347269500 
        0.6401217000         0.8137573300 
s   1 1.0  
        0.1612778000         1.0000000000 

  6 0 
s   3 1.0  
       18.7311370000         0.0334946000 
        2.8253937000         0.2347269500 
        0.6401217000         0.8137573300 
s   1 1.0  
        0.1612778000         1.0000000000 

  7 0 
s   6 1.0  
     3047.5249000000         0.0018347000 
      457.3695100000         0.0140373000 
      103.9486900000         0.0688426000 
       29.2101550000         0.2321844000 
        9.2866630000         0.4679413000 
        3.1639270000         0.3623120000 
s   3 1.0  
        7.8682724000        -0.1193324000 
        1.8812885000        -0.1608542000 
        0.5442493000         1.1434564000 
p   3 1.0  
        7.8682724000         0.0689991000 
        1.8812885000         0.3164240000 
        0.5442493000         0.7443083000 
s   1 1.0  
        0.1687144000         1.0000000000 
p   1 1.0  
        0.1687144000         1.0000000000 
d   1 1.0  
        0.8000000000         1.0000000000 
s2   1 1.0  
        0.8000000000         1.0000000000 
s   1 1.0  
        0.0438000000         1.0000000000 
p   1 1.0  
        0.0438000000         1.0000000000 

  8 0 
s   3 1.0  
       18.7311370000         0.0334946000 
        2.8253937000         0.2347269500 
        0.6401217000         0.8137573300 
s   1 1.0  
        0.1612778000         1.0000000000 

  9 0 
s   6 1.0  
     3047.5249000000         0.0018347000 
      457.3695100000         0.0140373000 
      103.9486900000         0.0688426000 
       29.2101550000         0.2321844000 
        9.2866630000         0.4679413000 
        3.1639270000         0.3623120000 
s   3 1.0  
        7.8682724000        -0.1193324000 
        1.8812885000        -0.1608542000 
        0.5442493000         1.1434564000 
p   3 1.0  
        7.8682724000         0.0689991000 
        1.8812885000         0.3164240000 
        0.5442493000         0.7443083000 
s   1 1.0  
        0.1687144000         1.0000000000 
p   1 1.0  
        0.1687144000         1.0000000000 
d   1 1.0  
        0.8000000000         1.0000000000 
s2   1 1.0  
        0.8000000000         1.0000000000 
s   1 1.0  
        0.0438000000         1.0000000000 
p   1 1.0  
        0.0438000000         1.0000000000 

 10 0 
s   6 1.0  
     5484.6717000000         0.0018311000 
      825.2349500000         0.0139501000 
      188.0469600000         0.0684451000 
       52.9645000000         0.2327143000 
       16.8975700000         0.4701930000 
        5.7996353000         0.3585209000 
s   3 1.0  
       15.5396160000        -0.1107775000 
        3.5999336000        -0.1480263000 
        1.0137618000         1.1307670000 
p   3 1.0  
       15.5396160000         0.0708743000 
        3.5999336000         0.3397528000 
        1.0137618000         0.7271586000 
s   1 1.0  
        0.2700058000         1.0000000000 
p   1 1.0  
        0.2700058000         1.0000000000 
d   1 1.0  
        0.8000000000         1.0000000000 
s2   1 1.0  
        0.8000000000         1.0000000000 
s   1 1.0  
        0.0845000000         1.0000000000 
p   1 1.0  
        0.0845000000         1.0000000000 

 11 0 
s   6 1.0  
     5484.6717000000         0.0018311000 
      825.2349500000         0.0139501000 
      188.0469600000         0.0684451000 
       52.9645000000         0.2327143000 
       16.8975700000         0.4701930000 
        5.7996353000         0.3585209000 
s   3 1.0  
       15.5396160000        -0.1107775000 
        3.5999336000        -0.1480263000 
        1.0137618000         1.1307670000 
p   3 1.0  
       15.5396160000         0.0708743000 
        3.5999336000         0.3397528000 
        1.0137618000         0.7271586000 
s   1 1.0  
        0.2700058000         1.0000000000 
p   1 1.0  
        0.2700058000         1.0000000000 
d   1 1.0  
        0.8000000000         1.0000000000 
s2   1 1.0  
        0.8000000000         1.0000000000 
s   1 1.0  
        0.0845000000         1.0000000000 
p   1 1.0  
        0.0845000000         1.0000000000 

 12 0 
s   3 1.0  
       18.7311370000         0.0334946000 
        2.8253937000         0.2347269500 
        0.6401217000         0.8137573300 
s   1 1.0  
        0.1612778000         1.0000000000 

 13 0 
s   6 1.0  
     3047.5249000000         0.0018347000 
      457.3695100000         0.0140373000 
      103.9486900000         0.0688426000 
       29.2101550000         0.2321844000 
        9.2866630000         0.4679413000 
        3.1639270000         0.3623120000 
s   3 1.0  
        7.8682724000        -0.1193324000 
        1.8812885000        -0.1608542000 
        0.5442493000         1.1434564000 
p   3 1.0  
        7.8682724000         0.0689991000 
        1.8812885000         0.3164240000 
        0.5442493000         0.7443083000 
s   1 1.0  
        0.1687144000         1.0000000000 
p   1 1.0  
        0.1687144000         1.0000000000 
d   1 1.0  
        0.8000000000         1.0000000000 
s2   1 1.0  
        0.8000000000         1.0000000000 
s   1 1.0  
        0.0438000000         1.0000000000 
p   1 1.0  
        0.0438000000         1.0000000000 

 14 0 
s   3 1.0  
       18.7311370000         0.0334946000 
        2.8253937000         0.2347269500 
        0.6401217000         0.8137573300 
s   1 1.0  
        0.1612778000         1.0000000000 

 15 0 
s   3 1.0  
       18.7311370000         0.0334946000 
        2.8253937000         0.2347269500 
        0.6401217000         0.8137573300 
s   1 1.0  
        0.1612778000         1.0000000000 

 16 0 
s   3 1.0  
       18.7311370000         0.0334946000 
        2.8253937000         0.2347269500 
        0.6401217000         0.8137573300 
s   1 1.0  
        0.1612778000         1.0000000000 

[5D]
[9G]
[MO]
 Sym=     1a
 Ene=  0.00000000000000E+00
 Spin= Beta
 Occup= 0.000920
  1      -0.297835488854
  2       0.408916061281
  3      -0.184631523377
  4       0.072326739807
  5       0.198343772038
  6       7.986029110221
  7       0.602962792537
  8      -0.100634528160
  9      -0.747994847198
 10       0.851996537365
 11       0.072764179454
 12       0.090164208821
 13       0.520037321249
 14      -0.093057598469
 15      -1.712962410438
 16       7.419715246156
 17       1.035590993277
 18       0.324849757945
 19      -0.704701848842
 20       0.077359869433
 21       0.121292197782
 22      -0.072704478402
 23       0.024459504855
 24       0.128906696780
 25      -2.001250302898
 26      -0.206920370924
 27       0.141779989997
 28       1.072617280413
 29      -0.213909431813
 30       0.107336480538
 31      -0.064533428059
 32      -0.005487635225
 33       0.013058455302
 34       0.328249283688
 35      -1.597048826113
 36       0.139729684350
 37      -0.020004481022
 38       0.327654555844
 39       0.024182480446
 40      -0.004191990076
 41      -0.041466106753
 42       0.002933001888
 43      -0.037446211956
 44      -1.316556740207
 45      -0.802650604085
 46       0.094369468146
 47      -0.828538851679
 48      -0.045584951275
 49      -0.141481108131
 50       0.019576886107
 51      -0.084732569849
 52       0.011951509916
 53      -0.093237205143
 54      -2.474086404874
 55      -0.029116595712
 56      -0.153077256981
 57      -0.335601478698
 58       0.088840147751
 59       0.197788351584
 60      -0.005004649538
 61       0.027969269844
 62       0.005336631735
 63      -2.359452583731
 64       1.152272491177
 65      -0.299514979806
 66      -0.535567590682
 67       0.029805849061
 68       0.025976572709
 69      -0.026406128534
 70      -0.063369635078
 71       0.026299605181
 72       0.412026065873
 73      -3.107200482574
 74       2.624167661592
 75       0.061246074562
 76      -0.318990373640
 77       0.009360223802
 78       1.129537896095
 79      -0.019207680221
 80       0.407371395857
 81       0.002917221119
 82       0.083144301376
 83      -0.042466992248
 84       0.014497141159
 85      -0.010234283027
 86       0.031289490041
 87      -0.082093174902
 88      -0.375183387157
 89       0.197175851156
 90      -0.006447388231
 91      -0.005064981465
 92      -0.002644288991
 93       0.026429160806
 94       0.005135500061
 95      -0.012555230396
 96      -2.069549995820
 97       2.210843963990
 98       0.608668350395
 99       0.052439581512
100      -0.068412396189
101       0.222806662582
102       0.013840866964
103       0.048050173144
104      -0.019343795642
105      -0.011322195237
106      -0.018475296937
107      -0.198506017957
108       0.422053988415
109       0.276339448388
110       0.048917162283
111      -0.000553178154
112       0.009898261317
113      -0.005984314327
114      -0.002212255850
115       0.012978044634
116       0.055673361181
117      -1.336455115466
118      -0.046703973665
119      -0.388938308877
120      -0.063233877523
121      -0.000971241950
122       0.009421003389
123      -0.014471531330
124       0.001590887123
125      -0.006039676714
126       0.154751657160
127      -0.009803478876
128       0.009271252032
129       0.018922687776
130       0.022610516256
131      -0.006563039216
132      -0.004906045550
133      -0.007715725493
134      -0.005519034246
135      -0.004543686587
136      -0.289071475342
137       0.153917383036
138      -0.004308969634
139       0.046882420150
140       0.001439448334
141       0.006733603672
142       0.005473739385
143      -0.009984149355
144      -0.002741052783
145      -0.135544816932
146       0.055158562027
147       0.108878633968
148       0.025893849495
149       0.003612782486
150      -0.001917576289
151      -0.002816340265
152       0.002816601887
153      -0.012383910681
154      -0.011074234499
155      -0.165090242865
156       0.206836743275
157      -0.125514577882
158      -0.033400459623
159       0.022782395760
160      -0.139447574966
161      -0.023543420799
162      -0.111031503610
163       0.023497612330
164      -0.010711213159
165       0.014659890736
166       0.724447336848
167      -0.241198214552
168      -0.206367803690
169       0.042989063790
170      -0.007551989102
171      -0.001174468676
172      -0.009201283922
173       0.002630006608
174       0.006121323316
175      -0.038906471801
176      -0.423457547862
177       0.071523951443
178       0.038786796088
179      -0.153276698920
180      -0.036400403843
181      -0.104381520607
182      -0.015050821349
183       0.114994984983
184      -0.050028732234
185       0.006567835042
 Sym=     1a
 Ene=  1.00000000000000E+00
 Spin= Beta
 Occup= 0.000192
  1       0.218515238699
  2      -0.682259435725
  3      -0.054751753556
  4       0.021594717878
  5       0.169513102495
  6      -2.576491810508
  7       0.155607645476
  8      -0.062461035212
  9       0.562911170925
 10       0.039344594935
 11       0.005314554780
 12       0.061033436816
 13      -0.071398488930
 14       0.044274290669
 15       1.704751318304
 16      11.847537458119
 17       4.509201835461
 18       0.313805632797
 19       3.481832405582
 20      -0.061742772419
 21      -0.198205741055
 22      -0.021303164048
 23       0.005693246486
 24       0.071160863826
 25       1.300158001601
 26      -0.060146087287
 27      -0.058353557504
 28       0.136431385713
 29      -0.071225612314
 30       0.039647204738
 31      -0.009150713448
 32       0.021896203929
 33       0.000308829558
 34      -0.462428276487
 35      -3.682091422338
 36       0.140640015643
 37       0.295658410036
 38      -1.012796903419
 39      -0.009186111673
 40      -0.134924935611
 41      -0.091901360202
 42      -0.009132315865
 43      -0.061930536279
 44       0.793804356586
 45       0.433617099239
 46       0.052163883690
 47       0.420230488467
 48      -0.016719817692
 49      -0.034264826588
 50       0.013534462681
 51      -0.023078576189
 52       0.009665362754
 53      -0.083505735702
 54       0.668812218473
 55      -0.626116629870
 56      -0.269451504540
 57      -0.588464209404
 58       0.002560808681
 59      -0.000883454685
 60       0.045673566015
 61      -0.014671985294
 62      -0.010053337373
 63       0.145163127865
 64      -0.653001655854
 65       0.064625895212
 66       0.169490260511
 67      -0.007879826681
 68       0.010110818804
 69      -0.009315271618
 70      -0.029841513378
 71      -0.009513744582
 72       0.033456518792
 73       0.898076285369
 74       0.838004301568
 75       1.894020797205
 76      -1.801677499521
 77      -0.018929854224
 78      -0.306228230184
 79      -0.106802373119
 80       0.790263863814
 81      -0.017867801710
 82       0.036162864322
 83       0.005823970370
 84       0.020614608521
 85      -0.043091764556
 86       0.184261871421
 87      -0.096761235694
 88      -0.334236362916
 89       0.068940784115
 90       0.013810176853
 91       0.001730858155
 92       0.028553222574
 93      -0.004100537649
 94       0.021869483538
 95      -0.108528249173
 96      -4.703177757301
 97       7.854825690396
 98       1.601279419954
 99      -0.724688927079
100      -0.133110336806
101       0.563656092131
102       0.002349560053
103      -0.083277034377
104       0.008756676423
105       0.001312745060
106      -0.038284310697
107      -0.042169754687
108      -0.083572350696
109      -0.003598905360
110       0.134800376762
111      -0.012035978515
112       0.002808445093
113      -0.004807910854
114      -0.000143672033
115      -0.008335871835
116       0.055550648986
117      -4.758902189868
118       0.117355769215
119      -1.309860890939
120      -0.217202891080
121       0.001624729676
122       0.001515404100
123      -0.007031304711
124      -0.003750561825
125       0.002081402651
126      -0.029069770491
127       0.051452887638
128       0.013686766053
129      -0.036972302591
130       0.002048155050
131      -0.012647720343
132      -0.004832218201
133      -0.006374069614
134       0.005176264250
135       0.005334706904
136       0.270574969737
137      -0.293991239624
138       0.007863705225
139       0.177448800127
140      -0.012709137581
141      -0.054703881891
142       0.016512786194
143      -0.010911915457
144      -0.001754063158
145       0.283268422100
146      -0.079662731240
147       0.048375429729
148      -0.009519246764
149      -0.000730145220
150       0.005237792269
151       0.010094612268
152       0.002561616182
153       0.002158707741
154      -0.088372847123
155      -0.217063085957
156       0.298013672950
157      -0.334216865555
158      -0.096694275042
159       0.023589958382
160      -0.134893449482
161      -0.010634982365
162      -0.040784157065
163       0.018847380158
164      -0.028641502144
165      -0.011541974458
166       0.378562342866
167       0.024925292538
168       0.047874407617
169       0.132144864772
170      -0.011220714191
171       0.009789269642
172      -0.013431151404
173       0.005069450668
174      -0.014592488931
175      -0.025624359751
176      -1.065901729680
177      -0.593727659756
178       0.254226173583
179      -0.402037968119
180      -0.071802059206
181       0.167645613457
182      -0.032658229920
183       0.015921331431
184       0.036072209531
185      -0.130408852488
 Sym=     1a
 Ene=  2.00000000000000E+00
 Spin= Beta
 Occup= 0.004264
  1      -0.004898864771
  2      -2.131912509519
  3      -0.295093905212
  4       0.143749957451
  5       0.166982481075
  6       3.946102961082
  7       1.724237766565
  8      -0.444419945854
  9      -1.061180816957
 10      -0.098477493424
 11      -0.210555377946
 12       0.012117935504
 13      -0.368090344669
 14       0.083806208864
 15       0.537335208049
 16       1.706908817698
 17       0.324808049560
 18       0.109764797986
 19      -0.135854630322
 20      -0.004169850210
 21      -0.034855903094
 22      -0.070356154295
 23       0.014802223812
 24       0.010048393017
 25       0.065106260163
 26      -0.227850394553
 27       0.051121050186
 28       0.069402707392
 29       0.051980322771
 30      -0.015007828171
 31       0.023253817624
 32       0.040992266344
 33      -0.013781481056
 34      -0.020733409521
 35      -0.297323633968
 36      -0.025921520430
 37       0.012127746894
 38       0.055113283456
 39      -0.000323687113
 40      -0.100512849154
 41      -0.034800231216
 42       0.015885886299
 43       0.038461373263
 44      -0.230901507706
 45      -0.313241850888
 46       0.063633079285
 47       0.041241466576
 48       0.114426949093
 49       0.059932510461
 50       0.001042256651
 51       0.024768917868
 52      -0.009246912031
 53      -0.017650156353
 54      -0.470238496883
 55      -0.053100015843
 56      -0.039769682943
 57      -0.047826304366
 58       0.053675528639
 59      -0.038712384517
 60       0.108495044779
 61       0.015128426039
 62      -0.052903471643
 63      -1.456251672038
 64       1.018023147260
 65      -0.049167344445
 66      -0.385619915961
 67       0.018937986311
 68      -0.008370913629
 69       0.003455718027
 70      -0.012103858245
 71       0.007128291919
 72       0.177990545118
 73      -0.851929640463
 74       0.835765608083
 75       0.082413043182
 76      -0.155598537204
 77      -0.031780381437
 78       0.253671675778
 79      -0.005049871781
 80       0.096944847915
 81       0.020173334457
 82       0.096770247195
 83      -0.021024233771
 84       0.020073749001
 85       0.004815336808
 86      -0.366859910139
 87       0.367357436012
 88      -0.120117562349
 89       0.104327921265
 90      -0.001800611918
 91      -0.002919218379
 92      -0.004121324410
 93       0.010497066846
 94      -0.005379601838
 95       0.016438645492
 96      -0.755536009271
 97       0.819364434359
 98       0.233802752456
 99       0.062932568472
100       0.012019494556
101       0.155181065614
102       0.005602014811
103       0.050451902209
104       0.000712099527
105      -0.011585809694
106      -0.010857069597
107      -0.202078541345
108       0.203762394196
109       0.000469602329
110       0.007009327901
111       0.001604598617
112       0.002487195086
113      -0.003048528901
114      -0.001107822813
115       0.005273956478
116      -0.010682436755
117      -0.447353336888
118      -0.036258738112
119      -0.157575618817
120      -0.042800848079
121       0.001066405580
122       0.004336351707
123      -0.008269243695
124      -0.001735100161
125      -0.003047418026
126       0.014429523839
127      -0.009674476635
128      -0.008281879702
129       0.010213714299
130       0.008071241327
131      -0.003508319725
132      -0.001616673349
133      -0.003119947344
134      -0.001609048520
135       0.004574263935
136      -0.080849141855
137       0.024120521746
138      -0.002292665389
139       0.021123621708
140       0.000696123019
141       0.009201747847
142      -0.000864086868
143      -0.003671595096
144      -0.001295390324
145      -0.043670879398
146       0.028629103989
147       0.031853626236
148       0.000800626348
149       0.001509386789
150       0.000294977177
151      -0.001029323387
152       0.000718727965
153      -0.004315121045
154      -0.000771441022
155      -0.034575338095
156       0.072461691806
157      -0.050415833289
158      -0.018905679540
159      -0.000184651227
160      -0.058743173010
161      -0.009735673980
162      -0.031412681017
163      -0.015290022074
164      -0.024672027917
165       0.014879746423
166       0.357982280235
167      -0.104279264695
168      -0.094224279709
169       0.056086484278
170      -0.003178197684
171      -0.002925418204
172      -0.003202908905
173      -0.000093492801
174       0.005081475199
175      -0.006928872728
176      -0.145037944684
177       0.011214163479
178       0.025768356502
179      -0.057725189959
180      -0.020524861469
181      -0.010757420662
182      -0.008999254036
183       0.011991249565
184      -0.013445575054
185       0.045912850076
 Sym=     1a
 Ene=  3.00000000000000E+00
 Spin= Beta
 Occup= 1.998061
  1      -0.047220997412
  2       0.222483282649
  3      -0.228206193505
  4       0.021509252609
  5      -0.237318791027
  6       0.122980501823
  7      -0.004484338458
  8       0.012452277533
  9       0.089815130664
 10       0.018629039070
 11       0.060575570301
 12      -0.005348084536
 13       0.003998271059
 14       0.001299985604
 15      -0.008088702311
 16       0.048258417548
 17       0.026455388618
 18      -0.000828967878
 19       0.007757950710
 20       0.010589176421
 21      -0.002232531172
 22       0.010488764308
 23       0.000007070018
 24       0.029305868626
 25      -0.135542582431
 26      -0.012610908116
 27       0.005134964755
 28       0.052763399998
 29       0.004724730069
 30       0.011057235526
 31      -0.000615700109
 32      -0.001456757602
 33       0.001647386729
 34       0.023996925259
 35      -0.033305931855
 36      -0.007734484315
 37       0.002998439059
 38       0.000649101876
 39      -0.050536400213
 40       0.254722551565
 41       0.180726396371
 42      -0.013717263970
 43       0.360974372721
 44       0.234568474272
 45       0.107203328649
 46      -0.009822624621
 47       0.191490660748
 48       0.008131457353
 49       0.036068368872
 50      -0.003661908941
 51       0.007738414573
 52      -0.002362464571
 53      -0.000489887651
 54      -0.018738073552
 55       0.000493585982
 56      -0.003196542901
 57       0.009645807351
 58       0.003427269724
 59      -0.006240715631
 60       0.043768221858
 61      -0.006440793965
 62      -0.005238060461
 63       0.014651094058
 64      -0.025812529426
 65       0.009300086444
 66      -0.034954251537
 67      -0.005911542258
 68      -0.004023246508
 69       0.000529734255
 70       0.009473893954
 71      -0.004174901897
 72       0.000209436159
 73      -0.039056522678
 74      -0.008008904632
 75       0.004814999936
 76      -0.013287544411
 77      -0.013940047087
 78      -0.075466691219
 79       0.003592834706
 80       0.008113656246
 81      -0.000113751810
 82       0.003039349771
 83      -0.007545276421
 84       0.002465273338
 85       0.004836382988
 86       0.021472672196
 87       0.039137558523
 88      -0.028708041470
 89      -0.004311966998
 90      -0.000971352905
 91      -0.000200750648
 92       0.000962319968
 93      -0.000062974281
 94       0.000522432464
 95       0.001233829145
 96      -0.006801747092
 97       0.012286619125
 98       0.000679186685
 99      -0.009114876958
100       0.000025868916
101       0.002877280528
102      -0.000323880436
103      -0.002202127970
104       0.005794591497
105       0.000851344571
106       0.000413359862
107      -0.023592618180
108      -0.001985162739
109      -0.033123653423
110      -0.005950944996
111       0.000253425421
112       0.000299504740
113      -0.000071337086
114      -0.000465747548
115      -0.000331231179
116      -0.004770582140
117      -0.011515512955
118       0.004726496092
119       0.002776701334
120       0.002564553675
121       0.000469251563
122      -0.001924683186
123       0.001758433937
124      -0.000357558400
125      -0.000220947336
126      -0.012239132214
127      -0.001223893663
128      -0.002585392805
129      -0.000805377198
130      -0.000593670697
131       0.000065261194
132       0.000315955682
133      -0.000026724507
134      -0.000151321028
135       0.001428309127
136       0.002239106709
137      -0.000967783955
138      -0.000737652896
139       0.000660906733
140      -0.000688443638
141      -0.000822307509
142      -0.000139830195
143      -0.000149599994
144      -0.000723221555
145       0.018887324371
146      -0.007428919796
147      -0.001410211616
148      -0.000553570184
149      -0.000019980238
150       0.000050186423
151      -0.000175516424
152       0.000680532131
153       0.000572978944
154      -0.002677155488
155      -0.001366290796
156      -0.001234055511
157       0.000296174226
158       0.000119094188
159       0.000377181729
160       0.001858080158
161      -0.000663037924
162      -0.001652153796
163      -0.002695874390
164      -0.001448809851
165      -0.001188493674
166       0.021497780360
167      -0.007160861264
168      -0.005216959662
169       0.008907758168
170       0.000158865872
171      -0.000367102725
172      -0.000768128683
173       0.000142086054
174       0.000602786804
175      -0.000512954072
176      -0.001412967112
177      -0.003237011128
178       0.000518491604
179      -0.001017204103
180      -0.001904318733
181      -0.004833022896
182      -0.000029499774
183       0.000129690758
184       0.001924237943
185      -0.003304781097
 Sym=     1a
 Ene=  4.00000000000000E+00
 Spin= Beta
 Occup= 0.106180
  1       0.086954110297
  2      -0.521522935884
  3       0.532449012899
  4      -0.042609685809
  5       0.634635245956
  6      -0.391231818282
  7       0.088198568573
  8      -0.027042398524
  9      -0.018730207647
 10      -0.036403208895
 11      -0.098006448800
 12       0.008434226309
 13       0.000212096078
 14      -0.004635092730
 15      -0.157702355642
 16       0.068641097044