[Molden Format]
[Title]
 created by molden2molden from mp2.molden

[Atoms] AU
C    1   6         -3.7893129204        -0.3765053298         0.6900733075 
O    2   8         -4.1257767686        -0.1350833677         2.9256193227 
O    3   8         -5.1358523942        -0.2765558249        -1.3418150327 
N    4   7         -1.1801397028        -0.8513160283        -0.5739342672 
H    5   1         -2.9011057331        -0.5241307353        -2.3007641177 
H    6   1         -0.6423028584        -2.7051694900        -0.4016195898 
C    7   6          0.9006849853         0.8168642820         0.2259849151 
H    8   1          0.7162080304         1.1024321363         2.2804630414 
C    9   6          3.3850021075        -0.5841484373        -0.1753267751 
O   10   8          3.5432307663        -2.8126060898        -0.6941397465 
O   11   8          5.4073567793         0.9179457328         0.1859019341 
H   12   1          6.9209688302        -0.1179246544        -0.0186760376 
C   13   6          0.7683909279         3.3854310644        -1.1068956182 
H   14   1         -1.0600003639         4.2770454279        -0.7307815362 
H   15   1          2.2565899418         4.6355945054        -0.4107356286 
H   16   1          0.9840313564         3.1656124515        -3.1536088598 
[GTO]
  1 0 
s   6 1.0  
     3047.5249000000         0.0018347000 
      457.3695100000         0.0140373000 
      103.9486900000         0.0688426000 
       29.2101550000         0.2321844000 
        9.2866630000         0.4679413000 
        3.1639270000         0.3623120000 
s   3 1.0  
        7.8682724000        -0.1193324000 
        1.8812885000        -0.1608542000 
        0.5442493000         1.1434564000 
p   3 1.0  
        7.8682724000         0.0689991000 
        1.8812885000         0.3164240000 
        0.5442493000         0.7443083000 
s   1 1.0  
        0.1687144000         1.0000000000 
p   1 1.0  
        0.1687144000         1.0000000000 
d   1 1.0  
        0.8000000000         1.0000000000 
s2   1 1.0  
        0.8000000000         1.0000000000 
s   1 1.0  
        0.0438000000         1.0000000000 
p   1 1.0  
        0.0438000000         1.0000000000 

  2 0 
s   6 1.0  
     5484.6717000000         0.0018311000 
      825.2349500000         0.0139501000 
      188.0469600000         0.0684451000 
       52.9645000000         0.2327143000 
       16.8975700000         0.4701930000 
        5.7996353000         0.3585209000 
s   3 1.0  
       15.5396160000        -0.1107775000 
        3.5999336000        -0.1480263000 
        1.0137618000         1.1307670000 
p   3 1.0  
       15.5396160000         0.0708743000 
        3.5999336000         0.3397528000 
        1.0137618000         0.7271586000 
s   1 1.0  
        0.2700058000         1.0000000000 
p   1 1.0  
        0.2700058000         1.0000000000 
d   1 1.0  
        0.8000000000         1.0000000000 
s2   1 1.0  
        0.8000000000         1.0000000000 
s   1 1.0  
        0.0845000000         1.0000000000 
p   1 1.0  
        0.0845000000         1.0000000000 

  3 0 
s   6 1.0  
     5484.6717000000         0.0018311000 
      825.2349500000         0.0139501000 
      188.0469600000         0.0684451000 
       52.9645000000         0.2327143000 
       16.8975700000         0.4701930000 
        5.7996353000         0.3585209000 
s   3 1.0  
       15.5396160000        -0.1107775000 
        3.5999336000        -0.1480263000 
        1.0137618000         1.1307670000 
p   3 1.0  
       15.5396160000         0.0708743000 
        3.5999336000         0.3397528000 
        1.0137618000         0.7271586000 
s   1 1.0  
        0.2700058000         1.0000000000 
p   1 1.0  
        0.2700058000         1.0000000000 
d   1 1.0  
        0.8000000000         1.0000000000 
s2   1 1.0  
        0.8000000000         1.0000000000 
s   1 1.0  
        0.0845000000         1.0000000000 
p   1 1.0  
        0.0845000000         1.0000000000 

  4 0 
s   6 1.0  
     4173.5110000000         0.0018348000 
      627.4579000000         0.0139950000 
      142.9021000000         0.0685870000 
       40.2343300000         0.2322410000 
       12.8202100000         0.4690700000 
        4.3904370000         0.3604550000 
s   3 1.0  
       11.6263580000        -0.1149610000 
        2.7162800000        -0.1691180000 
        0.7722180000         1.1458520000 
p   3 1.0  
       11.6263580000         0.0675800000 
        2.7162800000         0.3239070000 
        0.7722180000         0.7408950000 
s   1 1.0  
        0.2120313000         1.0000000000 
p   1 1.0  
        0.2120313000         1.0000000000 
d   1 1.0  
        0.8000000000         1.0000000000 
s2   1 1.0  
        0.8000000000         1.0000000000 
s   1 1.0  
        0.0639000000         1.0000000000 
p   1 1.0  
        0.0639000000         1.0000000000 

  5 0 
s   3 1.0  
       18.7311370000         0.0334946000 
        2.8253937000         0.2347269500 
        0.6401217000         0.8137573300 
s   1 1.0  
        0.1612778000         1.0000000000 

  6 0 
s   3 1.0  
       18.7311370000         0.0334946000 
        2.8253937000         0.2347269500 
        0.6401217000         0.8137573300 
s   1 1.0  
        0.1612778000         1.0000000000 

  7 0 
s   6 1.0  
     3047.5249000000         0.0018347000 
      457.3695100000         0.0140373000 
      103.9486900000         0.0688426000 
       29.2101550000         0.2321844000 
        9.2866630000         0.4679413000 
        3.1639270000         0.3623120000 
s   3 1.0  
        7.8682724000        -0.1193324000 
        1.8812885000        -0.1608542000 
        0.5442493000         1.1434564000 
p   3 1.0  
        7.8682724000         0.0689991000 
        1.8812885000         0.3164240000 
        0.5442493000         0.7443083000 
s   1 1.0  
        0.1687144000         1.0000000000 
p   1 1.0  
        0.1687144000         1.0000000000 
d   1 1.0  
        0.8000000000         1.0000000000 
s2   1 1.0  
        0.8000000000         1.0000000000 
s   1 1.0  
        0.0438000000         1.0000000000 
p   1 1.0  
        0.0438000000         1.0000000000 

  8 0 
s   3 1.0  
       18.7311370000         0.0334946000 
        2.8253937000         0.2347269500 
        0.6401217000         0.8137573300 
s   1 1.0  
        0.1612778000         1.0000000000 

  9 0 
s   6 1.0  
     3047.5249000000         0.0018347000 
      457.3695100000         0.0140373000 
      103.9486900000         0.0688426000 
       29.2101550000         0.2321844000 
        9.2866630000         0.4679413000 
        3.1639270000         0.3623120000 
s   3 1.0  
        7.8682724000        -0.1193324000 
        1.8812885000        -0.1608542000 
        0.5442493000         1.1434564000 
p   3 1.0  
        7.8682724000         0.0689991000 
        1.8812885000         0.3164240000 
        0.5442493000         0.7443083000 
s   1 1.0  
        0.1687144000         1.0000000000 
p   1 1.0  
        0.1687144000         1.0000000000 
d   1 1.0  
        0.8000000000         1.0000000000 
s2   1 1.0  
        0.8000000000         1.0000000000 
s   1 1.0  
        0.0438000000         1.0000000000 
p   1 1.0  
        0.0438000000         1.0000000000 

 10 0 
s   6 1.0  
     5484.6717000000         0.0018311000 
      825.2349500000         0.0139501000 
      188.0469600000         0.0684451000 
       52.9645000000         0.2327143000 
       16.8975700000         0.4701930000 
        5.7996353000         0.3585209000 
s   3 1.0  
       15.5396160000        -0.1107775000 
        3.5999336000        -0.1480263000 
        1.0137618000         1.1307670000 
p   3 1.0  
       15.5396160000         0.0708743000 
        3.5999336000         0.3397528000 
        1.0137618000         0.7271586000 
s   1 1.0  
        0.2700058000         1.0000000000 
p   1 1.0  
        0.2700058000         1.0000000000 
d   1 1.0  
        0.8000000000         1.0000000000 
s2   1 1.0  
        0.8000000000         1.0000000000 
s   1 1.0  
        0.0845000000         1.0000000000 
p   1 1.0  
        0.0845000000         1.0000000000 

 11 0 
s   6 1.0  
     5484.6717000000         0.0018311000 
      825.2349500000         0.0139501000 
      188.0469600000         0.0684451000 
       52.9645000000         0.2327143000 
       16.8975700000         0.4701930000 
        5.7996353000         0.3585209000 
s   3 1.0  
       15.5396160000        -0.1107775000 
        3.5999336000        -0.1480263000 
        1.0137618000         1.1307670000 
p   3 1.0  
       15.5396160000         0.0708743000 
        3.5999336000         0.3397528000 
        1.0137618000         0.7271586000 
s   1 1.0  
        0.2700058000         1.0000000000 
p   1 1.0  
        0.2700058000         1.0000000000 
d   1 1.0  
        0.8000000000         1.0000000000 
s2   1 1.0  
        0.8000000000         1.0000000000 
s   1 1.0  
        0.0845000000         1.0000000000 
p   1 1.0  
        0.0845000000         1.0000000000 

 12 0 
s   3 1.0  
       18.7311370000         0.0334946000 
        2.8253937000         0.2347269500 
        0.6401217000         0.8137573300 
s   1 1.0  
        0.1612778000         1.0000000000 

 13 0 
s   6 1.0  
     3047.5249000000         0.0018347000 
      457.3695100000         0.0140373000 
      103.9486900000         0.0688426000 
       29.2101550000         0.2321844000 
        9.2866630000         0.4679413000 
        3.1639270000         0.3623120000 
s   3 1.0  
        7.8682724000        -0.1193324000 
        1.8812885000        -0.1608542000 
        0.5442493000         1.1434564000 
p   3 1.0  
        7.8682724000         0.0689991000 
        1.8812885000         0.3164240000 
        0.5442493000         0.7443083000 
s   1 1.0  
        0.1687144000         1.0000000000 
p   1 1.0  
        0.1687144000         1.0000000000 
d   1 1.0  
        0.8000000000         1.0000000000 
s2   1 1.0  
        0.8000000000         1.0000000000 
s   1 1.0  
        0.0438000000         1.0000000000 
p   1 1.0  
        0.0438000000         1.0000000000 

 14 0 
s   3 1.0  
       18.7311370000         0.0334946000 
        2.8253937000         0.2347269500 
        0.6401217000         0.8137573300 
s   1 1.0  
        0.1612778000         1.0000000000 

 15 0 
s   3 1.0  
       18.7311370000         0.0334946000 
        2.8253937000         0.2347269500 
        0.6401217000         0.8137573300 
s   1 1.0  
        0.1612778000         1.0000000000 

 16 0 
s   3 1.0  
       18.7311370000         0.0334946000 
        2.8253937000         0.2347269500 
        0.6401217000         0.8137573300 
s   1 1.0  
        0.1612778000         1.0000000000 

[5D]
[9G]
[MO]
 Sym=     1a
 Ene= -2.33415100000000E-04
 Spin= Alpha
 Occup=-0.000500
  1      -0.007850458308
  2      -0.086567555570
  3      -0.039559860743
  4      -0.020459088662
  5      -0.012091201306
  6       0.216092660191
  7       0.675058517055
  8      -0.112186876785
  9      -0.076047216184
 10       0.047053988669
 11       0.104383158305
 12       0.025482746747
 13      -0.032955420270
 14       0.003879276014
 15      -0.004240777786
 16      -0.102626834613
 17       0.726768397933
 18      -0.437234404224
 19      -0.390116191417
 20      -0.007386719327
 21      -0.079362277286
 22       0.177286297133
 23      -0.027991765954
 24       0.014199158986
 25       0.237988203745
 26      -0.627546281697
 27       0.089159686541
 28      -0.078450497650
 29       0.014172833321
 30       0.168682555324
 31      -0.017940636026
 32      -0.000904690995
 33       0.014318798331
 34      -0.049419964842
 35       0.336833653322
 36       0.079825312646
 37      -0.081239378403
 38      -0.133361275111
 39      -0.019340129324
 40      -0.231794594954
 41       0.164126456783
 42      -0.032059201712
 43       0.007461806061
 44       0.716981176800
 45      -0.582229693552
 46       0.101800250737
 47       0.036979108579
 48       0.028775351882
 49      -0.118258990335
 50       0.025130070552
 51      -0.065469823817
 52       0.014288561526
 53      -0.140614288728
 54       0.387965825993
 55       0.379467673433
 56      -0.020187640508
 57       0.243247453090
 58       0.018285482264
 59       0.171286680724
 60       0.134275341316
 61      -0.080267336572
 62      -0.024986954329
 63      -0.738268764847
 64      -0.434037282011
 65       0.339361837713
 66      -0.034135761884
 67       0.000362609257
 68       0.009185869664
 69       0.008766457748
 70       0.026112678492
 71      -0.025440253826
 72       0.026878905735
 73      -1.006361078213
 74       1.672317264848
 75      -0.208275497274
 76      -0.602347287447
 77       0.032074758588
 78       0.018661843260
 79       0.056242145478
 80       0.112084496453
 81       0.005539243566
 82       0.055846910509
 83      -0.127680959468
 84       0.042915058174
 85       0.007101983924
 86      -0.255750330652
 87       0.260425847269
 88      -0.081632095941
 89       0.022032559198
 90      -0.023066021490
 91       0.024643887118
 92       0.046643204276
 93       0.018690082968
 94       0.017755177707
 95      -0.001058423604
 96      -8.511531763444
 97      -3.877096464721
 98       0.918308598352
 99       1.604867318750
100       0.018876948675
101      -0.110740851166
102       0.001240161322
103      -0.097182749492
104       0.053385196153
105      -0.024316160550
106       0.006889814369
107      -0.016784751743
108      -0.841371646758
109      -0.393514293200
110      -0.195822341733
111      -0.028677375739
112      -0.007041600460
113       0.047027700824
114      -0.054479871279
115       0.076086875288
116       0.035257719185
117       5.916992674785
118      -1.733954813746
119       0.684454058638
120       0.093913877155
121      -0.001948878958
122       0.023462460578
123      -0.190856768354
124      -0.020216198101
125      -0.014827551383
126      -0.205802520219
127       0.761317404674
128      -0.082771648331
129       0.021085862167
130       0.012813417665
131       0.030725993287
132       0.012110795548
133       0.020105828887
134       0.138655269004
135      -0.051665784297
136      -0.435849869434
137      -0.172072146005
138      -0.189227678620
139      -0.014879754351
140      -0.022310651878
141      -0.253172766681
142      -0.097061583050
143      -0.002389361864
144      -0.028446013249
145       0.950440691347
146       0.161267938818
147      -0.132381556018
148       0.057401580706
149       0.022336553230
150      -0.030526185207
151      -0.008208248921
152      -0.028702324604
153      -0.032807377927
154      -0.122126298621
155       1.063740228375
156      -0.440538206054
157      -0.286561961614
158      -0.065041012823
159      -0.033848701840
160       0.009656725231
161      -0.002984672953
162       0.019821855274
163       0.004328517749
164      -0.054633543182
165       0.003199693056
166       0.054991423764
167      -0.072957857847
168       0.057134410636
169       0.028698615355
170      -0.003046131439
171       0.017805020947
172      -0.032617524916
173       0.030410478473
174       0.007931447174
175      -0.022689906469
176       1.809994809685
177       0.849579520779
178      -0.723381658664
179      -0.059779880286
180      -0.017969897042
181       0.017715896721
182      -0.040679045905
183       0.198472916473
184       0.012216116097
185      -0.003468506089
 Sym=     1a
 Ene= -1.55505600000000E-04
 Spin= Alpha
 Occup=-0.000300
  1       0.006692949107
  2       0.062246188771
  3       0.000020481750
  4      -0.027200064208
  5       0.036436009947
  6       0.013741624645
  7      -0.508827885804
  8       0.081302103411
  9       0.273326034094
 10      -0.038047750302
 11      -0.111009748445
 12       0.059627382205
 13       0.050639770506
 14      -0.046120908762
 15       0.005210850362
 16      -1.999158963437
 17      -1.323832704977
 18      -0.145674100700
 19       0.276134891114
 20       0.019746579934
 21       0.170083639821
 22      -0.159218321503
 23       0.016855725892
 24      -0.017196322877
 25      -0.642880878671
 26       0.534169230468
 27      -0.070513024693
 28       0.200047020893
 29      -0.018215254826
 30      -0.131775142935
 31      -0.005151421579
 32       0.006346459872
 33      -0.034410781721
 34       0.123094658717
 35      -0.276515521904
 36      -0.289474415745
 37       0.118520571877
 38       0.060793107466
 39       0.027753675953
 40       0.261589926944
 41      -0.133347162105
 42      -0.032185679339
 43      -0.023773609435
 44      -0.733282733934
 45       0.476345783447
 46       0.058402937670
 47       0.020162512932
 48      -0.022338096398
 49       0.104336935754
 50       0.010607647803
 51       0.044603698811
 52      -0.000762555213
 53       0.217481583091
 54      -0.782764377118
 55      -0.531986930796
 56       0.060390700515
 57      -0.369066232474
 58       0.004449080817
 59       0.050625457566
 60      -0.060272998135
 61      -0.012753329244
 62       0.023848913992
 63       0.038524200565
 64       0.062940492250
 65       0.150728767123
 66      -0.031179710890
 67       0.023609425541
 68       0.003286183595
 69      -0.010019935616
 70      -0.032609550767
 71       0.027393221369
 72       0.025103717829
 73       1.453108494835
 74      -2.078697376413
 75       0.098601028931
 76       0.418429432039
 77      -0.023705480975
 78      -0.087911244524
 79      -0.014356270524
 80       0.094669478799
 81      -0.000052860019
 82      -0.115564039938
 83      -0.055408292722
 84       0.093979211256
 85      -0.006061107193
 86      -0.269825388271
 87       0.034605683121
 88      -0.159165085120
 89       0.062434903635
 90      -0.030222024737
 91      -0.018956541810
 92       0.020376763033
 93       0.055143846327
 94      -0.035391008092
 95       0.030300056959
 96      -3.455299663403
 97      -2.426224556664
 98       1.817855340191
 99      -0.048016155288
100       0.001954834099
101       0.146340440323
102      -0.002383108540
103      -0.086496350805
104       0.030724333054
105      -0.028553517524
106      -0.016160270702
107       0.089428142776
108      -0.655727231949
109       0.193389547651
110       0.009091824356
111       0.015234498581
112       0.044070495911
113      -0.009596548514
114      -0.057611089386
115       0.142417531371
116       0.011655080999
117       5.991149185679
118      -2.391527759691
119       0.638226158219
120       0.296997989621
121      -0.024058674010
122      -0.185764519906
123      -0.182077604045
124       0.027815472268
125       0.009029983841
126       0.623210000549
127       0.690650632369
128      -0.035504844028
129      -0.010737488188
130       0.018839723925
131       0.048586029931
132      -0.027206709032
133       0.030867809511
134       0.138671095388
135      -0.186406368722
136       0.156211136982
137      -0.613552806215
138      -0.009849210232
139      -0.022774610068
140      -0.022669241916
141      -0.216155903320
142      -0.102502744611
143       0.013166107335
144      -0.021051927909
145       0.707623077853
146       0.268281923267
147      -0.127585201145
148       0.047257635294
149       0.018696230205
150      -0.016983592101
151       0.013439403651
152      -0.058753735628
153      -0.039705639628
154      -0.149563341697
155       0.274020557838
156      -0.151194469754
157      -0.222244210079
158      -0.105196135152
159      -0.074477460184
160       0.251403214274
161      -0.004217318067
162       0.011001278912
163      -0.006598143600
164      -0.060929083531
165       0.005537259246
166       0.107517884656
167      -0.042403798722
168       0.054287583724
169       0.065657331131
170      -0.004286881900
171       0.025692668595
172       0.022192134480
173       0.004540252115
174       0.002341357350
175      -0.028726784738
176      -1.704225820250
177       0.268214224833
178       0.055369105255
179      -0.269072578929
180       0.013091708623
181      -0.092454111237
182      -0.062232614481
183       0.225737800035
184      -0.021996776175
185       0.172272958875
 Sym=     1a
 Ene= -1.09704100000000E-04
 Spin= Alpha
 Occup=-0.000200
  1      -0.002050180642
  2      -0.115620669984
  3      -0.069843700661
  4       0.017403863348
  5       0.067374739387
  6       0.033341883706
  7       0.349719680606
  8      -0.128047775178
  9      -0.519429681341
 10       0.038710742089
 11      -0.040641682464
 12       0.052407902510
 13      -0.009068154913
 14       0.007918352068
 15       0.018644499823
 16      -2.930603430989
 17      -1.102266571246
 18      -0.069806860958
 19      -0.109059584707
 20      -0.004317834815
 21       0.001010335773
 22       0.064394605320
 23       0.002249177156
 24       0.005581120872
 25       0.156124732098
 26      -0.233635136435
 27       0.017313457928
 28      -0.042053482000
 29      -0.035541022275
 30      -0.021477548557
 31      -0.017808967955
 32      -0.007247977121
 33      -0.031840382044
 34      -0.034205902414
 35       1.111792719702
 36       0.547959062627
 37      -0.227551475895
 38      -0.371864604626
 39       0.019606449299
 40       0.168435095445
 41      -0.072926148204
 42      -0.040094752591
 43      -0.035183976591
 44      -0.562833366237
 45       0.189532673046
 46       0.108246350534
 47       0.088730214280
 48       0.032571739696
 49       0.067111860638
 50       0.025243172801
 51       0.005266823057
 52       0.016540082475
 53       0.155977259042
 54      -0.312618344311
 55      -0.511416260123
 56       0.083066244564
 57       0.306795687920
 58       0.020229694176
 59       0.025360057907
 60      -0.046561686476
 61      -0.021507861459
 62      -0.292389820025
 63      -0.413872900704
 64       0.300129277134
 65       0.038941598884
 66       1.004200204830
 67       0.011119299550
 68       0.020522785388
 69       0.044499958358
 70      -0.001294793257
 71       0.019850743895
 72       0.140937126655
 73      -3.213756429550
 74      -1.587695853327
 75      -0.405240256787
 76      -2.518412240067
 77       0.205405533756
 78      -0.197337035410
 79       0.003599935545
 80       0.307834266438
 81      -0.002242125959
 82      -0.139702084960
 83       0.061755156156
 84       0.045378888132
 85       0.162147997642
 86       0.289635734832
 87      -0.156440752212
 88      -0.002896097553
 89      -0.712894150345
 90      -0.000193938889
 91       0.093334518222
 92      -0.026734665769
 93      -0.015694919706
 94      -0.039308844032
 95       0.036629162531
 96       8.804588984900
 97      -1.672613072996
 98      -1.850297907963
 99       1.546856923734
100       0.227769109549
101      -0.347679663237
102      -0.000465928667
103      -0.014231052300
104       0.003009985731
105      -0.015396792078
106      -0.032275415264
107      -0.037182941424
108      -0.133978165423
109       0.106324113765
110       0.278744900211
111       0.026218075639
112      -0.097580505697
113       0.086741978082
114      -0.005013973784
115       0.014811186995
116      -0.001581491929
117      -2.960217429599
118       0.868167025364
119       0.164388896285
120      -0.620810679643
121      -0.001817276108
122      -0.007000905453
123      -0.015180277468
124       0.015230961805
125      -0.048468758704
126       0.084400057945
127       0.047669727393
128      -0.004447767133
129       0.076852700217
130      -0.000086699806
131      -0.059503683642
132       0.012743561147
133       0.010333855245
134       0.023929392829
135      -0.010141348473
136       0.624955713106
137      -0.044869885085
138       0.165735365445
139       0.129126010661
140       0.002421431508
141       0.039834695088
142       0.004536613227
143       0.020829722256
144       0.034825162465
145      -0.101907861511
146      -0.016542785539
147      -0.099586571100
148      -0.138476101731
149      -0.007064627836
150       0.029505060687
151       0.021984668023
152      -0.005614233944
153       0.011705788874
154       0.022704588669
155      -0.033123384027
156      -0.005675497142
157       0.214494157115
158       0.060379339604
159      -0.017063542550
160       0.133363504247
161       0.001262477380
162      -0.015905004562
163      -0.012320416899
164       0.066742968440
165      -0.041906782604
166       0.068102244819
167       0.092590887204
168       0.072547458198
169       0.102589501658
170       0.017288840170
171      -0.002000801205
172      -0.116409956288
173       0.028639644827
174       0.039189854085
175       0.014716362787
176      -0.248126904609
177       0.298607047805
178       0.366488497042
179      -0.578508374697
180       0.028866462305
181      -0.117952868063
182       0.006945183163
183      -0.243379230212
184       0.113545429830
185      -0.498501080088
 Sym=     1a
 Ene= -8.69414000000000E-05
 Spin= Alpha
 Occup=-0.000200
  1      -0.005225139831
  2      -0.039953003989
  3      -0.000952141722
  4       0.030622589148
  5      -0.014861105146
  6       0.187015243291
  7       0.090598002062
  8       0.102963340453
  9       0.135433503106
 10      -0.016650137446
 11       0.021136457749
 12      -0.078465794102
 13       0.006607023710
 14      -0.014955284004
 15      -0.011406919732
 16       0.874658097119
 17       0.229593504382
 18       0.281275953251
 19      -0.012436394029
 20       0.014426583983
 21       0.092459945573
 22       0.015187862304
 23       0.016641345280
 24       0.017635434278
 25      -0.343561244665
 26      -0.047464113890
 27      -0.013049289528
 28      -0.030826266806
 29       0.019468960397
 30      -0.001578729571
 31       0.051031599054
 32      -0.012811188417
 33       0.011760709769
 34       0.115595763843
 35      -0.149322534480
 36      -0.047704393247
 37      -0.195075133434
 38       0.019471729294
 39       0.008919814468
 40       0.050476458404
 41      -0.012065895260
 42       0.106669873673
 43       0.005738807298
 44      -0.178153207896
 45       0.047896058234
 46      -0.299577367722
 47      -0.021226156301
 48      -0.005017187162
 49      -0.008666989263
 50      -0.051970733888
 51      -0.002037569343
 52      -0.049742526073
 53       0.066716635854
 54       0.519310192396
 55       0.116382837451
 56       0.027286581095
 57       0.069171849550
 58      -0.002489142460
 59       0.029428342644
 60       0.023497832715
 61       0.029549613604
 62       0.032438070924
 63      -0.046238545869
 64      -0.113445948267
 65      -0.182388576003
 66      -0.083003737761
 67      -0.005224365290
 68       0.017645635907
 69       0.003421958023
 70      -0.002374055806
 71      -0.004391505790
 72      -0.032075997971
 73       0.797718603911
 74       1.036182984142
 75       0.519503688975
 76      -0.234376877078
 77      -0.035397350312
 78      -0.021279499781
 79      -0.040998097494
 80       0.051543741720
 81      -0.001922070178
 82      -0.040671550926
 83      -0.037309405153
 84      -0.067322318107
 85       0.026196005118
 86       0.193443644382
 87       0.126014731385
 88       0.217421557721
 89      -0.237998550613
 90      -0.005915923398
 91       0.059933601034
 92      -0.071028745342
 93      -0.002729103058
 94       0.009698637374
 95       0.017235750698
 96      -6.580190679911
 97       1.055173550019
 98      -2.679314803143
 99       2.647128127926
100      -0.024024146711
101       0.247962111180
102       0.001572371940
103       0.027854499783
104       0.010742128285
105       0.044967787072
106      -0.104594124837
107      -0.132993628309
108       0.093978256380
109      -0.035976439246
110       0.026988416538
111      -0.036432802165
112      -0.172698049842
113      -0.137208213986
114       0.014733002185
115       0.080903315060
116      -0.007687445746
117      -1.648597160467
118       0.522782722599
119       0.226832538797
120      -1.506395519128
121       0.012028673431
122       0.059756648492
123      -0.010311961148
124      -0.000020232188
125      -0.050739545878
126      -0.193793054862
127       0.027760377097
128       0.071740394492
129       0.024363905912
130       0.013147257617
131       0.083082381091
132       0.095085040343
133      -0.006035606762
134      -0.022964433041
135       0.102660490478
136      -0.070244961140
137      -0.038467884011
138      -0.268430914299
139       0.547758937880
140       0.003366966303
141       0.020822532070
142      -0.001612599541
143       0.044767798993
144      -0.303726870854
145      -0.134111742239
146       0.040164639377
147      -0.121388608188
148       0.982770920356
149      -0.002986594850
150      -0.037158076266
151      -0.045991167473
152      -0.004120448888
153      -0.007754293891
154       0.006074478161
155       0.437632289074
156      -0.284433512659
157       0.131629207635
158      -0.905719456422
159       0.003274697911
160       0.054107559739
161       0.017638920295
162       0.069898725805
163       0.012669575623
164       0.045406022856
165      -0.080982492633
166      -0.287622919415
167      -0.217840932433
168       0.108679042852
169       0.183216545030
170      -0.021137914495
171       0.035099393477
172      -0.019236962651
173      -0.003589939317
174       0.008120476890
175       0.071944481464
176       6.837650705163
177      -0.275978467895
178      -1.304505038267
179       0.292478776836
180       0.015337130786
181      -0.300958100723
182       0.016063365621
183       0.002572312948
184       0.162238932476
185      -0.330786283615
 Sym=     1a
 Ene= -7.25716000000000E-05
 Spin= Alpha
 Occup=-0.000100
  1      -0.009626061096
  2      -0.087780855901
  3       0.008215700488
  4       0.081727327848
  5      -0.051123035575
  6       0.363905470709
  7       0.179349276877
  8       0.177939496954
  9       0.305996783753
 10      -0.039045641570
 11       0.028003172381
 12      -0.216599900486
 13       0.010845517424
 14      -0.090135574975
 15      -0.010081818009