
    -----------------------------------------------------------------------
          Psi4: An Open-Source Ab Initio Electronic Structure Package
                               Psi4 1.2.1 release

                         Git: Rev {HEAD} 406f4de 


    R. M. Parrish, L. A. Burns, D. G. A. Smith, A. C. Simmonett,
    A. E. DePrince III, E. G. Hohenstein, U. Bozkaya, A. Yu. Sokolov,
    R. Di Remigio, R. M. Richard, J. F. Gonthier, A. M. James,
    H. R. McAlexander, A. Kumar, M. Saitow, X. Wang, B. P. Pritchard,
    P. Verma, H. F. Schaefer III, K. Patkowski, R. A. King, E. F. Valeev,
    F. A. Evangelista, J. M. Turney, T. D. Crawford, and C. D. Sherrill,
    J. Chem. Theory Comput. 13(7) pp 3185--3197 (2017).
    (doi: 10.1021/acs.jctc.7b00174)


                         Additional Contributions by
    P. Kraus, H. Kruse, M. H. Lechner, M. C. Schieber, and R. A. Shaw

    -----------------------------------------------------------------------


    Psi4 started on: Wednesday, 20 February 2019 01:22PM

    Process ID: 7100
    Host:       localhost.localdomain
    PSIDATADIR: /root/psi4conda/share/psi4
    Memory:     500.0 MiB
    Threads:    1
    
  ==> Input File <==

--------------------------------------------------------------------------

molecule{ 
0 1
 C   -2.005218033677   -0.199238039464    0.365171066565
 O   -2.183267033677   -0.071483039464    1.548171066565
 O   -2.717776033677   -0.146347039464   -0.710057933435
 N   -0.624503033677   -0.450497039464   -0.303712933435
 H   -1.535199033677   -0.277358039464   -1.217511933435
 H   -0.339892033677   -1.431514039464   -0.212527933435
 C    0.476621966323    0.432265960536    0.119586066565
 H    0.379000966323    0.583381960536    1.206769066565
 C    1.791265966323   -0.309118039464   -0.092778933435
 O    1.874996966323   -1.488367039464   -0.367322933435
 O    2.861449966323    0.485755960536    0.098375066565
 H    3.662418966323   -0.062403039464   -0.009882933435
 C    0.406614966323    1.791492960536   -0.585743933435
 H   -0.560928033677    2.263314960536   -0.386712933435
 H    1.194135966323    2.453050960536   -0.217351933435
 H    0.520726966323    1.675169960536   -1.668817933435
}

set basis 6-31+G*
set_num_threads(16)
e, wfn = properties('mp2', return_wfn=True)

d = wfn.Da().to_array()
s = wfn.S().to_array()
c = wfn.Ca().to_array()
occs = c.T.dot(s.dot(d).dot(s).dot(c))

molden(wfn, 'mp2.molden', density_a = psi4.core.Matrix.from_array(occs))
--------------------------------------------------------------------------
  Threads set to 16 by Python driver.
    SCF Algorithm Type (re)set to DF.

*** tstart() called on localhost.localdomain
*** at Wed Feb 20 13:22:54 2019

   => Loading Basis Set <=

    Name: 6-31+G*
    Role: ORBITAL
    Keyword: BASIS
    atoms 1, 7, 9, 13       entry C          line   119 file /root/psi4conda/share/psi4/basis/6-31pgs.gbs 
    atoms 2-3, 10-11        entry O          line   157 file /root/psi4conda/share/psi4/basis/6-31pgs.gbs 
    atoms 4                 entry N          line   138 file /root/psi4conda/share/psi4/basis/6-31pgs.gbs 
    atoms 5-6, 8, 12, 14-16 entry H          line    46 file /root/psi4conda/share/psi4/basis/6-31pgs.gbs 


         ---------------------------------------------------------
                                   SCF
            by Justin Turney, Rob Parrish, Andy Simmonett
                             and Daniel Smith
                              RHF Reference
                       16 Threads,    500 MiB Core
         ---------------------------------------------------------

  ==> Geometry <==

    Molecular point group: c1
    Full point group: C1

    Geometry (in Angstrom), charge = 0, multiplicity = 1:

       Center              X                  Y                   Z               Mass       
    ------------   -----------------  -----------------  -----------------  -----------------
         C           -2.005218033677    -0.199238039464     0.365171066565    12.000000000000
         O           -2.183267033677    -0.071483039464     1.548171066565    15.994914619560
         O           -2.717776033677    -0.146347039464    -0.710057933435    15.994914619560
         N           -0.624503033677    -0.450497039464    -0.303712933435    14.003074004780
         H           -1.535199033677    -0.277358039464    -1.217511933435     1.007825032070
         H           -0.339892033677    -1.431514039464    -0.212527933435     1.007825032070
         C            0.476621966323     0.432265960536     0.119586066565    12.000000000000
         H            0.379000966323     0.583381960536     1.206769066565     1.007825032070
         C            1.791265966323    -0.309118039464    -0.092778933435    12.000000000000
         O            1.874996966323    -1.488367039464    -0.367322933435    15.994914619560
         O            2.861449966323     0.485755960536     0.098375066565    15.994914619560
         H            3.662418966323    -0.062403039464    -0.009882933435     1.007825032070
         C            0.406614966323     1.791492960536    -0.585743933435    12.000000000000
         H           -0.560928033677     2.263314960536    -0.386712933435     1.007825032070
         H            1.194135966323     2.453050960536    -0.217351933435     1.007825032070
         H            0.520726966323     1.675169960536    -1.668817933435     1.007825032070

  Running in c1 symmetry.

  Rotational constants: A =      0.10537  B =      0.03019  C =      0.02801 [cm^-1]
  Rotational constants: A =   3158.94831  B =    905.04271  C =    839.76787 [MHz]
  Nuclear repulsion =  465.888861752751779

  Charge       = 0
  Multiplicity = 1
  Electrons    = 70
  Nalpha       = 35
  Nbeta        = 35

  ==> Algorithm <==

  SCF Algorithm Type is DF.
  DIIS enabled.
  MOM disabled.
  Fractional occupation disabled.
  Guess Type is SAD.
  Energy threshold   = 1.00e-10
  Density threshold  = 1.00e-10
  Integral threshold = 0.00e+00

  ==> Primary Basis <==

  Basis Set: 6-31+G*
    Blend: 6-31+G*
    Number of shells: 86
    Number of basis function: 185
    Number of Cartesian functions: 185
    Spherical Harmonics?: false
    Max angular momentum: 2

   => Loading Basis Set <=

    Name: (6-31+G* AUX)
    Role: JKFIT
    Keyword: DF_BASIS_SCF
    atoms 1, 7, 9, 13       entry C          line   194 file /root/psi4conda/share/psi4/basis/heavy-aug-cc-pvdz-jkfit.gbs 
    atoms 2-3, 10-11        entry O          line   310 file /root/psi4conda/share/psi4/basis/heavy-aug-cc-pvdz-jkfit.gbs 
    atoms 4                 entry N          line   252 file /root/psi4conda/share/psi4/basis/heavy-aug-cc-pvdz-jkfit.gbs 
    atoms 5-6, 8, 12, 14-16 entry H          line   116 file /root/psi4conda/share/psi4/basis/heavy-aug-cc-pvdz-jkfit.gbs 

  ==> Pre-Iterations <==

   -------------------------------------------------------
    Irrep   Nso     Nmo     Nalpha   Nbeta   Ndocc  Nsocc
   -------------------------------------------------------
     A        185     185       0       0       0       0
   -------------------------------------------------------
    Total     185     185      35      35      35       0
   -------------------------------------------------------

  ==> Integral Setup <==

  ==> DiskDFJK: Density-Fitted J/K Matrices <==

    J tasked:                  Yes
    K tasked:                  Yes
    wK tasked:                  No
    OpenMP threads:             16
    Integrals threads:          16
    Memory (MB):               375
    Algorithm:                Core
    Integral Cache:           NONE
    Schwarz Cutoff:          1E-12
    Fitting Condition:       1E-12

   => Auxiliary Basis Set <=

  Basis Set: (6-31+G* AUX)
    Blend: HEAVY-AUG-CC-PVDZ-JKFIT
    Number of shells: 315
    Number of basis function: 1084
    Number of Cartesian functions: 1084
    Spherical Harmonics?: false
    Max angular momentum: 3

  Minimum eigenvalue in the overlap matrix is 4.0196752134E-05.
  Using Symmetric Orthogonalization.

  SCF Guess: Superposition of Atomic Densities via on-the-fly atomic UHF.

  ==> Iterations <==

                           Total Energy        Delta E     RMS |[F,P]|

   @DF-RHF iter   0:  -512.57616772372648   -5.12576e+02   1.15224e-01 
   @DF-RHF iter   1:  -509.12110688269149    3.45506e+00   1.64181e-02 
   @DF-RHF iter   2:  -509.33162514131487   -2.10518e-01   9.52434e-03 DIIS
   @DF-RHF iter   3:  -509.40833207970832   -7.67069e-02   1.85921e-03 DIIS
   @DF-RHF iter   4:  -509.41550834520785   -7.17627e-03   7.06213e-04 DIIS
   @DF-RHF iter   5:  -509.41626449206331   -7.56147e-04   2.31310e-04 DIIS
   @DF-RHF iter   6:  -509.41638493591142   -1.20444e-04   6.25598e-05 DIIS
   @DF-RHF iter   7:  -509.41639976232824   -1.48264e-05   2.85129e-05 DIIS
   @DF-RHF iter   8:  -509.41640143254500   -1.67022e-06   1.11679e-05 DIIS
   @DF-RHF iter   9:  -509.41640184718534   -4.14640e-07   5.01058e-06 DIIS
   @DF-RHF iter  10:  -509.41640191698110   -6.97958e-08   1.86324e-06 DIIS
   @DF-RHF iter  11:  -509.41640193010807   -1.31270e-08   5.91866e-07 DIIS
   @DF-RHF iter  12:  -509.41640193172009   -1.61202e-09   2.36863e-07 DIIS
   @DF-RHF iter  13:  -509.41640193188721   -1.67120e-10   8.06914e-08 DIIS
   @DF-RHF iter  14:  -509.41640193190386   -1.66551e-11   3.81292e-08 DIIS
   @DF-RHF iter  15:  -509.41640193190540   -1.53477e-12   1.36571e-08 DIIS
   @DF-RHF iter  16:  -509.41640193190722   -1.81899e-12   5.54752e-09 DIIS
   @DF-RHF iter  17:  -509.41640193190682    3.97904e-13   2.67549e-09 DIIS
   @DF-RHF iter  18:  -509.41640193190699   -1.70530e-13   1.00556e-09 DIIS
   @DF-RHF iter  19:  -509.41640193190682    1.70530e-13   3.69211e-10 DIIS
   @DF-RHF iter  20:  -509.41640193190688   -5.68434e-14   1.59502e-10 DIIS
   @DF-RHF iter  21:  -509.41640193190710   -2.27374e-13   6.69748e-11 DIIS

  ==> Post-Iterations <==

    Orbital Energies [Eh]
    ---------------------

    Doubly Occupied:                                                      

       1A    -20.666823     2A    -20.608784     3A    -20.584707  
       4A    -20.575024     5A    -15.651902     6A    -11.439300  
       7A    -11.431195     8A    -11.335721     9A    -11.265596  
      10A     -1.508963    11A     -1.463134    12A     -1.406444  
      13A     -1.372727    14A     -1.261546    15A     -1.074873  
      16A     -0.951223    17A     -0.859064    18A     -0.805866  
      19A     -0.754845    20A     -0.744748    21A     -0.726756  
      22A     -0.715173    23A     -0.666221    24A     -0.663652  
      25A     -0.640616    26A     -0.611615    27A     -0.609312  
      28A     -0.588062    29A     -0.563500    30A     -0.550054  
      31A     -0.520671    32A     -0.493131    33A     -0.477808  
      34A     -0.463734    35A     -0.444056  

    Virtual:                                                              

      36A      0.053611    37A      0.073572    38A      0.078305  
      39A      0.084880    40A      0.108344    41A      0.111479  
      42A      0.115496    43A      0.122692    44A      0.129532  
      45A      0.132014    46A      0.151180    47A      0.156981  
      48A      0.174407    49A      0.180425    50A      0.184179  
      51A      0.188097    52A      0.198515    53A      0.223398  
      54A      0.241150    55A      0.253388    56A      0.265921  
      57A      0.270576    58A      0.278473    59A      0.295767  
      60A      0.304037    61A      0.322247    62A      0.327657  
      63A      0.334133    64A      0.345141    65A      0.353619  
      66A      0.359190    67A      0.364036    68A      0.370878  
      69A      0.378143    70A      0.389164    71A      0.397246  
      72A      0.406810    73A      0.410310    74A      0.413670  
      75A      0.429251    76A      0.439396    77A      0.443997  
      78A      0.473099    79A      0.476212    80A      0.482292  
      81A      0.489884    82A      0.509066    83A      0.535221  
      84A      0.558400    85A      0.566359    86A      0.617073  
      87A      0.686171    88A      0.764478    89A      0.833119  
      90A      0.859944    91A      0.881905    92A      0.921566  
      93A      0.927437    94A      0.966331    95A      0.982598  
      96A      1.007989    97A      1.016963    98A      1.036406  
      99A      1.068740   100A      1.099650   101A      1.128138  
     102A      1.167076   103A      1.199960   104A      1.217719  
     105A      1.229750   106A      1.265644   107A      1.273383  
     108A      1.303428   109A      1.327247   110A      1.338703  
     111A      1.373054   112A      1.391494   113A      1.424142  
     114A      1.460677   115A      1.487994   116A      1.496112  
     117A      1.509056   118A      1.541317   119A      1.560689  
     120A      1.568016   121A      1.581576   122A      1.590367  
     123A      1.606266   124A      1.612355   125A      1.616587  
     126A      1.647181   127A      1.672544   128A      1.709358  
     129A      1.758913   130A      1.796239   131A      1.835435  
     132A      1.865339   133A      1.870908   134A      1.933999  
     135A      1.962102   136A      1.974775   137A      2.013562  
     138A      2.036064   139A      2.047389   140A      2.065266  
     141A      2.073647   142A      2.103623   143A      2.114307  
     144A      2.134508   145A      2.168844   146A      2.207421  
     147A      2.216584   148A      2.271966   149A      2.297735  
     150A      2.323294   151A      2.341183   152A      2.384911  
     153A      2.395369   154A      2.439909   155A      2.493357  
     156A      2.519190   157A      2.610862   158A      2.611438  
     159A      2.644343   160A      2.681436   161A      2.762413  
     162A      2.773871   163A      2.858824   164A      2.886258  
     165A      2.941441   166A      2.972812   167A      2.986859  
     168A      3.116228   169A      3.202603   170A      3.244194  
     171A      3.274325   172A      3.343294   173A      3.451227  
     174A      3.474313   175A      3.492871   176A      3.574824  
     177A      4.417124   178A      4.545813   179A      4.628696  
     180A      4.650114   181A      4.768691   182A      4.848695  
     183A      4.937461   184A      4.970041   185A      5.065980  

    Final Occupation by Irrep:
              A 
    DOCC [    35 ]

  Energy converged.

  @DF-RHF Final Energy:  -509.41640193190710

   => Energetics <=

    Nuclear Repulsion Energy =            465.8888617527517795
    One-Electron Energy =               -1621.6168333930224890
    Two-Electron Energy =                 646.3115697083635496
    Total Energy =                       -509.4164019319071031


*** tstop() called on localhost.localdomain at Wed Feb 20 13:22:59 2019
Module time:
	user time   =      52.75 seconds =       0.88 minutes
	system time =       3.58 seconds =       0.06 minutes
	total time  =          5 seconds =       0.08 minutes
Total time:
	user time   =      52.75 seconds =       0.88 minutes
	system time =       3.58 seconds =       0.06 minutes
	total time  =          5 seconds =       0.08 minutes
   => Loading Basis Set <=

    Name: (6-31+G* AUX)
    Role: RIFIT
    Keyword: DF_BASIS_MP2
    atoms 1, 7, 9, 13       entry C          line   116 file /root/psi4conda/share/psi4/basis/heavy-aug-cc-pvdz-ri.gbs 
    atoms 2-3, 10-11        entry O          line   208 file /root/psi4conda/share/psi4/basis/heavy-aug-cc-pvdz-ri.gbs 
    atoms 4                 entry N          line   162 file /root/psi4conda/share/psi4/basis/heavy-aug-cc-pvdz-ri.gbs 
    atoms 5-6, 8, 12, 14-16 entry H          line    44 file /root/psi4conda/share/psi4/basis/heavy-aug-cc-pvdz-ri.gbs 


  //>>>>>>>>>>>>>>>>>>>>>>>>>>>>>>>>>>>//
  //               DFMP2               //
  //<<<<<<<<<<<<<<<<<<<<<<<<<<<<<<<<<<<//

	 --------------------------------------------------------
	                          DF-MP2                         
	      2nd-Order Density-Fitted Moller-Plesset Theory     
	              RMP2 Wavefunction,  16 Threads             
	                                                         
	        Rob Parrish, Justin Turney, Andy Simmonett,      
	           Ed Hohenstein, and C. David Sherrill          
	 --------------------------------------------------------

   => Auxiliary Basis Set <=

  Basis Set: (6-31+G* AUX)
    Blend: HEAVY-AUG-CC-PVDZ-RI
    Number of shells: 240
    Number of basis function: 746
    Number of Cartesian functions: 879
    Spherical Harmonics?: true
    Max angular momentum: 3

	 --------------------------------------------------------
	                 NBF =   185, NAUX =   746
	 --------------------------------------------------------
	   CLASS    FOCC     OCC    AOCC    AVIR     VIR    FVIR
	   PAIRS       0      35      35     150     150       0
	 --------------------------------------------------------


         ------------------------------------------------------------
                                     CPHF                           
                                  Rob Parrish                       
         ------------------------------------------------------------

  ==> Geometry <==

    Molecular point group: c1
    Full point group: C1

    Geometry (in Angstrom), charge = 0, multiplicity = 1:

       Center              X                  Y                   Z               Mass       
    ------------   -----------------  -----------------  -----------------  -----------------
         C           -2.005218033677    -0.199238039464     0.365171066565    12.000000000000
         O           -2.183267033677    -0.071483039464     1.548171066565    15.994914619560
         O           -2.717776033677    -0.146347039464    -0.710057933435    15.994914619560
         N           -0.624503033677    -0.450497039464    -0.303712933435    14.003074004780
         H           -1.535199033677    -0.277358039464    -1.217511933435     1.007825032070
         H           -0.339892033677    -1.431514039464    -0.212527933435     1.007825032070
         C            0.476621966323     0.432265960536     0.119586066565    12.000000000000
         H            0.379000966323     0.583381960536     1.206769066565     1.007825032070
         C            1.791265966323    -0.309118039464    -0.092778933435    12.000000000000
         O            1.874996966323    -1.488367039464    -0.367322933435    15.994914619560
         O            2.861449966323     0.485755960536     0.098375066565    15.994914619560
         H            3.662418966323    -0.062403039464    -0.009882933435     1.007825032070
         C            0.406614966323     1.791492960536    -0.585743933435    12.000000000000
         H           -0.560928033677     2.263314960536    -0.386712933435     1.007825032070
         H            1.194135966323     2.453050960536    -0.217351933435     1.007825032070
         H            0.520726966323     1.675169960536    -1.668817933435     1.007825032070

  Nuclear repulsion =  465.888861752751779
  Reference energy  = -509.416401931907103

  ==> Basis Set <==

  Basis Set: 6-31+G*
    Blend: 6-31+G*
    Number of shells: 86
    Number of basis function: 185
    Number of Cartesian functions: 185
    Spherical Harmonics?: false
    Max angular momentum: 2

  ==> CGRSolver (by Rob Parrish) <==

   Number of roots    =         1
   Preconditioning    =    JACOBI
   Convergence cutoff =     1E-06
   Maximum iterations =       100

  ==> CPHFRHamiltonian (by Rob Parrish) <== 

  ==> DiskDFJK: Density-Fitted J/K Matrices <==

    J tasked:                  Yes
    K tasked:                  Yes
    wK tasked:                  No
    OpenMP threads:             16
    Integrals threads:          16
    Memory (MB):               375
    Algorithm:                Core
    Integral Cache:           NONE
    Schwarz Cutoff:          1E-12
    Fitting Condition:       1E-12

   => Auxiliary Basis Set <=

  Basis Set: (6-31+G* AUX)
    Blend: HEAVY-AUG-CC-PVDZ-JKFIT
    Number of shells: 315
    Number of basis function: 1084
    Number of Cartesian functions: 1084
    Spherical Harmonics?: false
    Max angular momentum: 3

  ==> CPHF Iterations <==

  => Iterations <=

             Iter  Converged  Remaining    Residual
  CGR           1          0          1   1.452E-01
  CGR           2          0          1   3.881E-02
  CGR           3          0          1   1.745E-02
  CGR           4          0          1   4.995E-03
  CGR           5          0          1   2.312E-03
  CGR           6          0          1   8.928E-04
  CGR           7          0          1   3.655E-04
  CGR           8          0          1   1.024E-04
  CGR           9          0          1   3.904E-05
  CGR          10          0          1   1.313E-05
  CGR          11          0          1   4.138E-06
  CGR          12          0          1   1.462E-06
  CGR          13          1          0   6.243E-07

    CGRSolver converged.

	-----------------------------------------------------------
	 ==================> DF-MP2 Energies <==================== 
	-----------------------------------------------------------
	 Reference Energy          =    -509.4164019319071031 [Eh]
	 Singles Energy            =      -0.0000000000000000 [Eh]
	 Same-Spin Energy          =      -0.3992786887443693 [Eh]
	 Opposite-Spin Energy      =      -1.0676767048925067 [Eh]
	 Correlation Energy        =      -1.4669553936368760 [Eh]
	 Total Energy              =    -510.8833573255439546 [Eh]
	-----------------------------------------------------------
	 ================> DF-SCS-MP2 Energies <================== 
	-----------------------------------------------------------
	 SCS Same-Spin Scale       =       0.3333333333333333 [-]
	 SCS Opposite-Spin Scale   =       1.2000000000000000 [-]
	 SCS Same-Spin Energy      =      -0.1330928962481231 [Eh]
	 SCS Opposite-Spin Energy  =      -1.2812120458710079 [Eh]
	 SCS Correlation Energy    =      -1.4143049421191309 [Eh]
	 SCS Total Energy          =    -510.8307068740262480 [Eh]
	-----------------------------------------------------------



Properties will be evaluated at   0.000000,   0.000000,   0.000000 [a0]

Properties computed using the MP2 density matrix

  Nuclear Dipole Moment: [e a0]
     X:     3.1137      Y:     4.8737      Z:    -2.3457

  Electronic Dipole Moment: [e a0]
     X:    -1.0019      Y:    -4.5072      Z:     1.8159

  Dipole Moment: [e a0]
     X:     2.1117      Y:     0.3665      Z:    -0.5298     Total:     2.2078

  Dipole Moment: [D]
     X:     5.3675      Y:     0.9315      Z:    -1.3467     Total:     5.6117

  Quadrupole Moment: [D A]
    XX:   -60.8398     YY:   -53.9903     ZZ:   -57.5611
    XY:     1.7247     XZ:     3.2310     YZ:    -1.2439

  Traceless Quadrupole Moment: [D A]
    XX:    -3.3761     YY:     3.4735     ZZ:    -0.0974
    XY:     1.7247     XZ:     3.2310     YZ:    -1.2439


    Psi4 stopped on: Wednesday, 20 February 2019 01:23PM
    Psi4 wall time for execution: 0:00:11.56

*** Psi4 exiting successfully. Buy a developer a beer!
