
Host: localhost.localdomain

Timers On : Fri Mar 22 13:42:26 2019
Timers Off: Fri Mar 22 13:47:26 2019

Wall Time:      299.74 seconds

V: Grid                     :    539.067u     40.367s     12.383w    133 calls
JK: (A|mn)                  :    109.567u      0.900s      1.672w    133 calls
JK: (A|Q)^-1/2              :   1813.933u    139.667s     46.014w    133 calls
JK: (Q|mn)                  :      7.633u      1.033s      0.129w    133 calls
HF: Form H                  :    138.233u     11.733s      2.305w    133 calls
HF: Form S/X                :      2.400u      0.233s      0.039w    133 calls
HF: Guess                   :   5727.567u    421.683s    118.529w    133 calls
SAD Guess                   :   5700.300u    419.700s    118.089w    133 calls
HF: Form G                  :    997.383u     26.400s     15.352w   1322 calls
RV: Form V                  :    890.350u     16.467s     13.598w   1322 calls
Properties                  :    172.038p                         1158316 calls
Functional                  :    173.252p                         1158316 calls
V_xc                        :    129.245p                         1158316 calls
JK: D                       :      2.817u      0.300s      0.046w   1322 calls
JK: USO2AO                  :      2.617u      0.300s      0.041w   1322 calls
JK: JK                      :     78.267u      7.050s      1.287w   1322 calls
JK: J                       :     15.767u      1.583s      0.256w   1322 calls
JK: J1                      :      5.017u      0.733s      0.086w   1322 calls
JK: J2                      :      3.517u      0.250s      0.058w   1322 calls
JK: K                       :     33.717u      2.750s      0.542w   1322 calls
JK: K1                      :     16.467u      1.333s      0.264w   1322 calls
JK: K2                      :     10.667u      0.750s      0.170w   1322 calls
JK: AO2USO                  :      2.117u      0.250s      0.035w   1322 calls
HF: Form F                  :      5.817u      0.550s      0.095w   1322 calls
HF: DIIS                    :    106.600u      9.433s      1.765w   1322 calls
DIISManager::add_entry      :     77.033u      6.400s      1.277w   1189 calls
DIISManager::extrapolate    :     18.900u      1.967s      0.320w   1056 calls
bMatrix setup               :      4.467u      0.417s      0.074w   1056 calls
bMatrix pseudoinverse       :      3.733u      0.317s      0.064w   1056 calls
New vector                  :      4.317u      0.433s      0.067w   1056 calls
HF: Form C                  :     18.400u      1.467s      0.300w   1322 calls
HF: Form D                  :      2.400u      0.217s      0.041w   1322 calls

-----------------------------------------------------------
V: Grid                     :    539.067u     40.367s     12.383w    133 calls
JK: (A|mn)                  :    109.567u      0.900s      1.672w    133 calls
JK: (A|Q)^-1/2              :   1813.933u    139.667s     46.014w    133 calls
JK: (Q|mn)                  :      7.633u      1.033s      0.129w    133 calls
HF: Form H                  :    138.233u     11.733s      2.305w    133 calls
HF: Form S/X                :      2.400u      0.233s      0.039w    133 calls
HF: Guess                   :   5727.567u    421.683s    118.529w    133 calls
| SAD Guess                 :   5700.300u    419.700s    118.089w    133 calls
HF: Form G                  :    997.383u     26.400s     15.352w   1322 calls
| RV: Form V                :    890.350u     16.467s     13.598w   1322 calls
| | Properties              :    172.038p                         1158316 calls
| | Functional              :    173.252p                         1158316 calls
| | V_xc                    :    129.245p                         1158316 calls
| JK: D                     :      2.817u      0.300s      0.046w   1322 calls
| JK: USO2AO                :      2.617u      0.300s      0.041w   1322 calls
| JK: JK                    :     78.267u      7.050s      1.287w   1322 calls
| | JK: J                   :     15.767u      1.583s      0.256w   1322 calls
| | | JK: J1                :      5.017u      0.733s      0.086w   1322 calls
| | | JK: J2                :      3.517u      0.250s      0.058w   1322 calls
| | JK: K                   :     33.717u      2.750s      0.542w   1322 calls
| | | JK: K1                :     16.467u      1.333s      0.264w   1322 calls
| | | JK: K2                :     10.667u      0.750s      0.170w   1322 calls
| JK: AO2USO                :      2.117u      0.250s      0.035w   1322 calls
HF: Form F                  :      5.817u      0.550s      0.095w   1322 calls
HF: DIIS                    :    106.600u      9.433s      1.765w   1322 calls
| DIISManager::add_entry    :     77.033u      6.400s      1.277w   1189 calls
| DIISManager::extrapolate  :     18.900u      1.967s      0.320w   1056 calls
| | bMatrix setup           :      4.467u      0.417s      0.074w   1056 calls
| | bMatrix pseudoinverse   :      3.733u      0.317s      0.064w   1056 calls
| | New vector              :      4.317u      0.433s      0.067w   1056 calls
HF: Form C                  :     18.400u      1.467s      0.300w   1322 calls
HF: Form D                  :      2.400u      0.217s      0.041w   1322 calls

***********************************************************

Host: DESKTOP-1OTU84N

Timers On : Sat Aug 24 13:32:34 2019
Timers Off: Sat Aug 24 13:32:35 2019

Wall Time:        0.96 seconds

                                                       Time (seconds)
Module                                       User      System        Wall        Calls

--------------------------------------------------------------------------------------

**************************************************************************************

Host: DESKTOP-1OTU84N

Timers On : Sat Aug 24 13:42:55 2019
Timers Off: Sat Aug 24 13:42:56 2019

Wall Time:        1.12 seconds

                                                       Time (seconds)
Module                                       User      System        Wall        Calls

--------------------------------------------------------------------------------------

**************************************************************************************

Host: DESKTOP-1OTU84N

Timers On : Sat Aug 24 13:44:46 2019
Timers Off: Sat Aug 24 13:44:47 2019

Wall Time:        1.57 seconds

                                                       Time (seconds)
Module                                       User      System        Wall        Calls

--------------------------------------------------------------------------------------

**************************************************************************************

Host: DESKTOP-1OTU84N

Timers On : Fri Oct 25 12:02:57 2019
Timers Off: Fri Oct 25 12:07:43 2019

Wall Time:      286.06 seconds

                                                       Time (seconds)
Module                                       User      System        Wall        Calls
V: Grid                             :     53.050u      1.117s      8.275w    133 calls
DFH: sparsity prep                  :      4.600u      0.033s      2.570w    133 calls
DFH: initialize()                   :    100.867u      3.100s     16.339w    133 calls
DFH: AO Construction                :      3.767u      0.033s      0.685w    133 calls
DFH: AO-Met. Contraction            :      2.100u      0.017s      0.221w    133 calls
HF: Form core H                     :     19.083u      1.583s      3.856w    133 calls
HF: Form S/X                        :      0.350u      0.067s      0.055w    133 calls
HF: Guess                           :    361.067u     12.633s     57.858w    133 calls
SAD Guess                           :    348.517u     12.283s     55.846w    133 calls
HF: Form G                          :    602.000u     14.117s     93.130w   1193 calls
RV: Form V                          :    596.067u     12.450s     91.747w   1193 calls
Properties                          :     44.621p                         1045078 calls
Functional                          :    261.784p                         1045078 calls
V_xc                                :     51.414p                         1045078 calls
JK: D                               :      0.183u      0.033s      0.017w   1193 calls
JK: USO2AO                          :      0.000u      0.000s      0.011w   1193 calls
JK: JK                              :      5.250u      1.583s      1.211w   1193 calls
DFH: compute_JK()                   :      5.250u      1.583s      1.197w   1193 calls
DFH: Grabbing AOs                   :      0.000u      0.000s      0.005w   1193 calls
DFH: compute_J                      :      0.933u      0.050s      0.253w   1193 calls
DFH: compute_K                      :      3.833u      1.417s      0.853w   1193 calls
JK: AO2USO                          :      0.100u      0.000s      0.005w   1193 calls
HF: Form F                          :      0.200u      0.000s      0.025w   1193 calls
HF: Form D                          :      0.000u      0.000s      0.016w   1193 calls
HF: DIIS                            :     15.383u      1.433s      2.588w   1060 calls
DIISManager::add_entry              :      7.867u      0.750s      1.485w   1060 calls
DIISManager::extrapolate            :      2.650u      0.517s      0.371w   1060 calls
bMatrix setup                       :      1.183u      0.417s      0.172w   1060 calls
bMatrix pseudoinverse               :      0.617u      0.000s      0.061w   1060 calls
New vector                          :      0.700u      0.067s      0.116w   1060 calls
HF: Form C                          :      1.550u      0.033s      0.217w   1060 calls

--------------------------------------------------------------------------------------
V: Grid                             :     53.050u      1.117s      8.275w    133 calls
DFH: sparsity prep                  :      4.600u      0.033s      2.570w    133 calls
DFH: initialize()                   :    100.867u      3.100s     16.339w    133 calls
| DFH: AO Construction              :      3.767u      0.033s      0.685w    133 calls
| DFH: AO-Met. Contraction          :      2.100u      0.017s      0.221w    133 calls
HF: Form core H                     :     19.083u      1.583s      3.856w    133 calls
HF: Form S/X                        :      0.350u      0.067s      0.055w    133 calls
HF: Guess                           :    361.067u     12.633s     57.858w    133 calls
| SAD Guess                         :    348.517u     12.283s     55.846w    133 calls
HF: Form G                          :    602.000u     14.117s     93.130w   1193 calls
| RV: Form V                        :    596.067u     12.450s     91.747w   1193 calls
| | Properties                      :     44.621p                         1045078 calls
| | Functional                      :    261.784p                         1045078 calls
| | V_xc                            :     51.414p                         1045078 calls
| JK: D                             :      0.183u      0.033s      0.017w   1193 calls
| JK: USO2AO                        :      0.000u      0.000s      0.011w   1193 calls
| JK: JK                            :      5.250u      1.583s      1.211w   1193 calls
| | DFH: compute_JK()               :      5.250u      1.583s      1.197w   1193 calls
| | | DFH: Grabbing AOs             :      0.000u      0.000s      0.005w   1193 calls
| | | DFH: compute_J                :      0.933u      0.050s      0.253w   1193 calls
| | | DFH: compute_K                :      3.833u      1.417s      0.853w   1193 calls
| JK: AO2USO                        :      0.100u      0.000s      0.005w   1193 calls
HF: Form F                          :      0.200u      0.000s      0.025w   1193 calls
HF: Form D                          :      0.000u      0.000s      0.016w   1193 calls
HF: DIIS                            :     15.383u      1.433s      2.588w   1060 calls
| DIISManager::add_entry            :      7.867u      0.750s      1.485w   1060 calls
| DIISManager::extrapolate          :      2.650u      0.517s      0.371w   1060 calls
| | bMatrix setup                   :      1.183u      0.417s      0.172w   1060 calls
| | bMatrix pseudoinverse           :      0.617u      0.000s      0.061w   1060 calls
| | New vector                      :      0.700u      0.067s      0.116w   1060 calls
HF: Form C                          :      1.550u      0.033s      0.217w   1060 calls

**************************************************************************************

Host: DESKTOP-1OTU84N

Timers On : Fri Oct 25 13:17:26 2019
Timers Off: Fri Oct 25 13:22:53 2019

Wall Time:      326.92 seconds

                                                       Time (seconds)
Module                                       User      System        Wall        Calls
V: Grid                             :     57.767u      1.317s      9.689w    132 calls
DFH: sparsity prep                  :      4.317u      0.000s      2.676w    132 calls
DFH: initialize()                   :    101.300u      2.783s     18.027w    132 calls
DFH: AO Construction                :      4.567u      0.000s      0.792w    132 calls
DFH: AO-Met. Contraction            :      1.917u      0.067s      0.266w    132 calls
HF: Form core H                     :     20.233u      1.783s      4.487w    132 calls
HF: Form S/X                        :      0.400u      0.117s      0.069w    132 calls
HF: Guess                           :    391.883u     14.417s     65.727w    132 calls
SAD Guess                           :    379.383u     14.083s     63.540w    132 calls
HF: Form G                          :    743.150u     18.350s    119.585w   1183 calls
RV: Form V                          :    735.633u     15.767s    117.549w   1183 calls
Properties                          :     58.138p                         1036368 calls
Functional                          :    327.302p                         1036368 calls
V_xc                                :     68.156p                         1036368 calls
JK: D                               :      0.000u      0.000s      0.022w   1183 calls
JK: USO2AO                          :      0.083u      0.033s      0.013w   1183 calls
JK: JK                              :      6.417u      2.517s      1.776w   1183 calls
DFH: compute_JK()                   :      6.417u      2.517s      1.760w   1183 calls
DFH: Grabbing AOs                   :      0.000u      0.000s      0.006w   1183 calls
DFH: compute_J                      :      1.983u      0.083s      0.351w   1183 calls
DFH: compute_K                      :      4.300u      2.433s      1.284w   1183 calls
JK: AO2USO                          :      0.100u      0.000s      0.006w   1183 calls
HF: Form F                          :      0.433u      0.000s      0.085w   1183 calls
HF: Form D                          :      0.100u      0.000s      0.020w   1183 calls
HF: DIIS                            :     15.750u      1.700s      2.813w   1051 calls
DIISManager::add_entry              :      7.667u      0.950s      1.316w   1051 calls
DIISManager::extrapolate            :      2.417u      0.533s      0.461w   1051 calls
bMatrix setup                       :      1.217u      0.317s      0.217w   1051 calls
bMatrix pseudoinverse               :      0.717u      0.000s      0.076w   1051 calls
New vector                          :      0.333u      0.150s      0.142w   1051 calls
HF: Form C                          :      1.467u      0.067s      0.276w   1051 calls

--------------------------------------------------------------------------------------
V: Grid                             :     57.767u      1.317s      9.689w    132 calls
DFH: sparsity prep                  :      4.317u      0.000s      2.676w    132 calls
DFH: initialize()                   :    101.300u      2.783s     18.027w    132 calls
| DFH: AO Construction              :      4.567u      0.000s      0.792w    132 calls
| DFH: AO-Met. Contraction          :      1.917u      0.067s      0.266w    132 calls
HF: Form core H                     :     20.233u      1.783s      4.487w    132 calls
HF: Form S/X                        :      0.400u      0.117s      0.069w    132 calls
HF: Guess                           :    391.883u     14.417s     65.727w    132 calls
| SAD Guess                         :    379.383u     14.083s     63.540w    132 calls
HF: Form G                          :    743.150u     18.350s    119.585w   1183 calls
| RV: Form V                        :    735.633u     15.767s    117.549w   1183 calls
| | Properties                      :     58.138p                         1036368 calls
| | Functional                      :    327.302p                         1036368 calls
| | V_xc                            :     68.156p                         1036368 calls
| JK: D                             :      0.000u      0.000s      0.022w   1183 calls
| JK: USO2AO                        :      0.083u      0.033s      0.013w   1183 calls
| JK: JK                            :      6.417u      2.517s      1.776w   1183 calls
| | DFH: compute_JK()               :      6.417u      2.517s      1.760w   1183 calls
| | | DFH: Grabbing AOs             :      0.000u      0.000s      0.006w   1183 calls
| | | DFH: compute_J                :      1.983u      0.083s      0.351w   1183 calls
| | | DFH: compute_K                :      4.300u      2.433s      1.284w   1183 calls
| JK: AO2USO                        :      0.100u      0.000s      0.006w   1183 calls
HF: Form F                          :      0.433u      0.000s      0.085w   1183 calls
HF: Form D                          :      0.100u      0.000s      0.020w   1183 calls
HF: DIIS                            :     15.750u      1.700s      2.813w   1051 calls
| DIISManager::add_entry            :      7.667u      0.950s      1.316w   1051 calls
| DIISManager::extrapolate          :      2.417u      0.533s      0.461w   1051 calls
| | bMatrix setup                   :      1.217u      0.317s      0.217w   1051 calls
| | bMatrix pseudoinverse           :      0.717u      0.000s      0.076w   1051 calls
| | New vector                      :      0.333u      0.150s      0.142w   1051 calls
HF: Form C                          :      1.467u      0.067s      0.276w   1051 calls

**************************************************************************************

Host: DESKTOP-1OTU84N

Timers On : Sat Nov 23 16:17:33 2019
Timers Off: Sat Nov 23 16:17:36 2019

Wall Time:        3.21 seconds

                                                       Time (seconds)
Module                                       User      System        Wall        Calls

--------------------------------------------------------------------------------------

**************************************************************************************

Host: DESKTOP-1OTU84N

Timers On : Sat Nov 23 16:18:11 2019
Timers Off: Sat Nov 23 16:18:14 2019

Wall Time:        3.37 seconds

                                                       Time (seconds)
Module                                       User      System        Wall        Calls

--------------------------------------------------------------------------------------

**************************************************************************************

Host: DESKTOP-1OTU84N

Timers On : Sat Nov 23 16:19:20 2019
Timers Off: Sat Nov 23 16:19:24 2019

Wall Time:        3.33 seconds

                                                       Time (seconds)
Module                                       User      System        Wall        Calls

--------------------------------------------------------------------------------------

**************************************************************************************

Host: DESKTOP-1OTU84N

Timers On : Sat Nov 23 16:20:49 2019
Timers Off: Sat Nov 23 16:20:52 2019

Wall Time:        3.26 seconds

                                                       Time (seconds)
Module                                       User      System        Wall        Calls

--------------------------------------------------------------------------------------

**************************************************************************************

Host: DESKTOP-1OTU84N

Timers On : Sat Nov 23 16:21:38 2019
Timers Off: Sat Nov 23 16:21:41 2019

Wall Time:        3.21 seconds

                                                       Time (seconds)
Module                                       User      System        Wall        Calls

--------------------------------------------------------------------------------------

**************************************************************************************

Host: DESKTOP-1OTU84N

Timers On : Sat Nov 23 16:28:17 2019
Timers Off: Sat Nov 23 16:28:21 2019

Wall Time:        3.28 seconds

                                                       Time (seconds)
Module                                       User      System        Wall        Calls

--------------------------------------------------------------------------------------

**************************************************************************************

Host: DESKTOP-1OTU84N

Timers On : Sat Nov 23 16:29:53 2019
Timers Off: Sat Nov 23 16:29:56 2019

Wall Time:        3.24 seconds

                                                       Time (seconds)
Module                                       User      System        Wall        Calls

--------------------------------------------------------------------------------------

**************************************************************************************

Host: DESKTOP-1OTU84N

Timers On : Sat Nov 23 16:33:26 2019
Timers Off: Sat Nov 23 16:33:30 2019

Wall Time:        3.96 seconds

                                                       Time (seconds)
Module                                       User      System        Wall        Calls

--------------------------------------------------------------------------------------

**************************************************************************************

Host: DESKTOP-1OTU84N

Timers On : Sat Nov 23 16:35:14 2019
Timers Off: Sat Nov 23 16:35:17 2019

Wall Time:        3.79 seconds

                                                       Time (seconds)
Module                                       User      System        Wall        Calls

--------------------------------------------------------------------------------------

**************************************************************************************
