
    -----------------------------------------------------------------------
          Psi4: An Open-Source Ab Initio Electronic Structure Package
                               Psi4 1.2.1 release

                         Git: Rev {HEAD} 406f4de 


    R. M. Parrish, L. A. Burns, D. G. A. Smith, A. C. Simmonett,
    A. E. DePrince III, E. G. Hohenstein, U. Bozkaya, A. Yu. Sokolov,
    R. Di Remigio, R. M. Richard, J. F. Gonthier, A. M. James,
    H. R. McAlexander, A. Kumar, M. Saitow, X. Wang, B. P. Pritchard,
    P. Verma, H. F. Schaefer III, K. Patkowski, R. A. King, E. F. Valeev,
    F. A. Evangelista, J. M. Turney, T. D. Crawford, and C. D. Sherrill,
    J. Chem. Theory Comput. 13(7) pp 3185--3197 (2017).
    (doi: 10.1021/acs.jctc.7b00174)


                         Additional Contributions by
    P. Kraus, H. Kruse, M. H. Lechner, M. C. Schieber, and R. A. Shaw

    -----------------------------------------------------------------------


    Psi4 started on: Monday, 13 May 2019 09:38AM

    Process ID: 9942
    Host:       localhost.localdomain
    PSIDATADIR: /root/psi4conda/share/psi4
    Memory:     500.0 MiB
    Threads:    1
    
  ==> Input File <==

--------------------------------------------------------------------------
molecule{
0 1
 C   -0.190508602311   -1.136710097258    0.066469259906
 O   -1.141435599203   -1.006428605061   -0.660196610617
 H    0.632305702324   -0.540439499912    1.941670338592
 H   -1.155245410890   -0.575198437565    1.889071910323
 H    1.302222471948    2.533759956160   -1.369966651607
 C    1.290484544975    1.542377185267   -0.907772073782
 H    1.239414436659    0.782481281695   -1.695337002840
 H    2.219231195403    1.409688926285   -0.352876787808
 O    0.231573869162    1.408458929553    0.020837295349
 H   -0.600073093274    1.370663452171   -0.457147494129
 C   -0.241932803606   -1.070588973210    1.563578607046
 H   -0.222671301446   -2.092210471982    1.956961245196
 H    0.808409265442   -1.352147227631   -0.365293384448 
}

set{
   basis 6-311++G(d,p)
   freeze_core True
}


set_num_threads(32)
optimize('m06-2x')
--------------------------------------------------------------------------
  Threads set to 32 by Python driver.
gradient() will perform analytic gradient computation.

*** tstart() called on localhost.localdomain
*** at Mon May 13 09:38:24 2019

   => Loading Basis Set <=

    Name: 6-311++G(D,P)
    Role: ORBITAL
    Keyword: BASIS
    atoms 1, 6, 11            entry C          line   119 file /root/psi4conda/share/psi4/basis/6-311ppg_d_p_.gbs 
    atoms 2, 9                entry O          line   161 file /root/psi4conda/share/psi4/basis/6-311ppg_d_p_.gbs 
    atoms 3-5, 7-8, 10, 12-13 entry H          line    42 file /root/psi4conda/share/psi4/basis/6-311ppg_d_p_.gbs 


         ---------------------------------------------------------
                                   SCF
            by Justin Turney, Rob Parrish, Andy Simmonett
                             and Daniel Smith
                              RKS Reference
                       32 Threads,    500 MiB Core
         ---------------------------------------------------------

  ==> Geometry <==

    Molecular point group: c1
    Full point group: C1

    Geometry (in Angstrom), charge = 0, multiplicity = 1:

       Center              X                  Y                   Z               Mass       
    ------------   -----------------  -----------------  -----------------  -----------------
         C           -0.190508602311    -1.136710097258     0.066469259906    12.000000000000
         O           -1.141435599203    -1.006428605061    -0.660196610617    15.994914619560
         H            0.632305702324    -0.540439499912     1.941670338592     1.007825032070
         H           -1.155245410890    -0.575198437565     1.889071910323     1.007825032070
         H            1.302222471948     2.533759956160    -1.369966651607     1.007825032070
         C            1.290484544975     1.542377185267    -0.907772073782    12.000000000000
         H            1.239414436659     0.782481281695    -1.695337002840     1.007825032070
         H            2.219231195403     1.409688926285    -0.352876787808     1.007825032070
         O            0.231573869162     1.408458929553     0.020837295349    15.994914619560
         H           -0.600073093274     1.370663452171    -0.457147494129     1.007825032070
         C           -0.241932803606    -1.070588973210     1.563578607046    12.000000000000
         H           -0.222671301446    -2.092210471982     1.956961245196     1.007825032070
         H            0.808409265442    -1.352147227631    -0.365293384448     1.007825032070

  Running in c1 symmetry.

  Rotational constants: A =      0.24764  B =      0.08873  C =      0.07580 [cm^-1]
  Rotational constants: A =   7424.05998  B =   2659.94287  C =   2272.39111 [MHz]
  Nuclear repulsion =  181.747215544713185

  Charge       = 0
  Multiplicity = 1
  Electrons    = 42
  Nalpha       = 21
  Nbeta        = 21

  ==> Algorithm <==

  SCF Algorithm Type is DF.
  DIIS enabled.
  MOM disabled.
  Fractional occupation disabled.
  Guess Type is SAD.
  Energy threshold   = 1.00e-08
  Density threshold  = 1.00e-08
  Integral threshold = 0.00e+00

  ==> Primary Basis <==

  Basis Set: 6-311++G(D,P)
    Blend: 6-311++G(D,P)
    Number of shells: 90
    Number of basis function: 166
    Number of Cartesian functions: 171
    Spherical Harmonics?: true
    Max angular momentum: 2

  ==> DFT Potential <==

   => Composite Functional: M06-2X <= 

    Hybrid M06-2X Meta-GGA XC Functional

    Y. Zhao and D. G. Truhlar,  Theor. Chem. Acc., 120, 215, 2008


    Deriv               =              1
    GGA                 =           TRUE
    Meta                =           TRUE

    Exchange Hybrid     =           TRUE
    MP2 Hybrid          =          FALSE

   => Exchange Functionals <=

    1.0000   XC_HYB_MGGA_X_M06_2X

   => Exact (HF) Exchange <=

    0.5400               HF 

   => Correlation Functionals <=

    1.0000   XC_MGGA_C_M06_2X

   => Molecular Quadrature <=

    Radial Scheme       =       TREUTLER
    Pruning Scheme      =           FLAT
    Nuclear Scheme      =       TREUTLER

    BS radius alpha     =              1
    Pruning alpha       =              1
    Radial Points       =             75
    Spherical Points    =            302
    Total Points        =         294450
    Total Blocks        =           2242
    Max Points          =            256
    Max Functions       =            165

   => Loading Basis Set <=

    Name: (6-311++G(D,P) AUX)
    Role: JKFIT
    Keyword: DF_BASIS_SCF
    atoms 1, 6, 11            entry C          line   162 file /root/psi4conda/share/psi4/basis/aug-cc-pvtz-jkfit.gbs 
    atoms 2, 9                entry O          line   286 file /root/psi4conda/share/psi4/basis/aug-cc-pvtz-jkfit.gbs 
    atoms 3-5, 7-8, 10, 12-13 entry H          line    70 file /root/psi4conda/share/psi4/basis/aug-cc-pvtz-jkfit.gbs 

  ==> Pre-Iterations <==

   -------------------------------------------------------
    Irrep   Nso     Nmo     Nalpha   Nbeta   Ndocc  Nsocc
   -------------------------------------------------------
     A        166     166       0       0       0       0
   -------------------------------------------------------
    Total     166     166      21      21      21       0
   -------------------------------------------------------

  ==> Integral Setup <==

  DFHelper Memory: AOs need 0.235 [GiB]; user supplied 0.366 [GiB]. Using in-core AOs.

  ==> MemDFJK: Density-Fitted J/K Matrices <==

    J tasked:                   Yes
    K tasked:                   Yes
    wK tasked:                   No
    OpenMP threads:              32
    Memory (MB):                375
    Algorithm:                 Core
    Schwarz Cutoff:           1E-12
    Mask sparsity (%):       3.3169
    Fitting Condition:        1E-12

   => Auxiliary Basis Set <=

  Basis Set: (6-311++G(D,P) AUX)
    Blend: AUG-CC-PVTZ-JKFIT
    Number of shells: 262
    Number of basis function: 888
    Number of Cartesian functions: 1095
    Spherical Harmonics?: true
    Max angular momentum: 4

  Minimum eigenvalue in the overlap matrix is 6.5648022742E-05.
  Using Symmetric Orthogonalization.

  SCF Guess: Superposition of Atomic Densities via on-the-fly atomic UHF.

  ==> Iterations <==

                           Total Energy        Delta E     RMS |[F,P]|

   @DF-RKS iter   0:  -270.47007539306708   -2.70470e+02   1.25346e-01 
   @DF-RKS iter   1:  -269.36718793819597    1.10289e+00   2.00545e-02 
   @DF-RKS iter   2:  -269.37953743333617   -1.23495e-02   1.41516e-02 DIIS
   @DF-RKS iter   3:  -269.51164349215378   -1.32106e-01   2.26817e-03 DIIS
   @DF-RKS iter   4:  -269.51444673882645   -2.80325e-03   1.24603e-03 DIIS
   @DF-RKS iter   5:  -269.51515823990604   -7.11501e-04   3.85410e-04 DIIS
   @DF-RKS iter   6:  -269.51522437104285   -6.61311e-05   8.28479e-05 DIIS
   @DF-RKS iter   7:  -269.51523184125119   -7.47021e-06   1.40719e-05 DIIS
   @DF-RKS iter   8:  -269.51523200848885   -1.67238e-07   3.47167e-06 DIIS
   @DF-RKS iter   9:  -269.51523202281857   -1.43297e-08   1.40114e-06 DIIS
   @DF-RKS iter  10:  -269.51523202480831   -1.98975e-09   2.28569e-07 DIIS
   @DF-RKS iter  11:  -269.51523202498436   -1.76044e-10   1.19240e-07 DIIS
   @DF-RKS iter  12:  -269.51523202501591   -3.15481e-11   3.88481e-08 DIIS
   @DF-RKS iter  13:  -269.51523202502108   -5.17275e-12   2.43706e-08 DIIS
   @DF-RKS iter  14:  -269.51523202502131   -2.27374e-13   7.05188e-09 DIIS

  ==> Post-Iterations <==

    Orbital Energies [Eh]
    ---------------------

    Doubly Occupied:                                                      

       1A    -19.628215     2A    -19.621106     3A    -10.633299  
       4A    -10.585207     5A    -10.538064     6A     -1.177185  
       7A     -1.152346     8A     -0.845024     9A     -0.784987  
      10A     -0.664569    11A     -0.595663    12A     -0.558585  
      13A     -0.536135    14A     -0.514848    15A     -0.511937  
      16A     -0.497814    17A     -0.458854    18A     -0.433850  
      19A     -0.415520    20A     -0.359652    21A     -0.329282  

    Virtual:                                                              

      22A     -0.003870    23A      0.010558    24A      0.013889  
      25A      0.019004    26A      0.026049    27A      0.039272  
      28A      0.043682    29A      0.051807    30A      0.062082  
      31A      0.069881    32A      0.088323    33A      0.093978  
      34A      0.103501    35A      0.111663    36A      0.122875  
      37A      0.124911    38A      0.138097    39A      0.142249  
      40A      0.147038    41A      0.155589    42A      0.167654  
      43A      0.202584    44A      0.210597    45A      0.217822  
      46A      0.219574    47A      0.227212    48A      0.244979  
      49A      0.252671    50A      0.270798    51A      0.279939  
      52A      0.296802    53A      0.308827    54A      0.326737  
      55A      0.335364    56A      0.341666    57A      0.351847  
      58A      0.354339    59A      0.360348    60A      0.412690  
      61A      0.445863    62A      0.462149    63A      0.482985  
      64A      0.491221    65A      0.544001    66A      0.583112  
      67A      0.585538    68A      0.618197    69A      0.632924  
      70A      0.671581    71A      0.692188    72A      0.693088  
      73A      0.702817    74A      0.713555    75A      0.719682  
      76A      0.749820    77A      0.765197    78A      0.780710  
      79A      0.899218    80A      0.927220    81A      0.960282  
      82A      1.027836    83A      1.047481    84A      1.071148  
      85A      1.121955    86A      1.165443    87A      1.185202  
      88A      1.246777    89A      1.256223    90A      1.296033  
      91A      1.329325    92A      1.385066    93A      1.465491  
      94A      1.473898    95A      1.496650    96A      1.499033  
      97A      1.520505    98A      1.541610    99A      1.558892  
     100A      1.588323   101A      1.599863   102A      1.611522  
     103A      1.635459   104A      1.664232   105A      1.700813  
     106A      1.735512   107A      1.746208   108A      1.779040  
     109A      1.811399   110A      1.836953   111A      1.904223  
     112A      1.962899   113A      1.970372   114A      2.048869  
     115A      2.085620   116A      2.122348   117A      2.165497  
     118A      2.186279   119A      2.254827   120A      2.276641  
     121A      2.364585   122A      2.458774   123A      2.479379  
     124A      2.501196   125A      2.535887   126A      2.543285  
     127A      2.548880   128A      2.561860   129A      2.585743  
     130A      2.611244   131A      2.618333   132A      2.693622  
     133A      2.729875   134A      2.752689   135A      2.888343  
     136A      2.919280   137A      2.944146   138A      2.977234  
     139A      2.994642   140A      3.071914   141A      3.164328  
     142A      3.225393   143A      3.280084   144A      3.353044  
     145A      3.424917   146A      3.557869   147A      3.565995  
     148A      3.793829   149A      3.839864   150A      3.845882  
     151A      3.896537   152A      3.958936   153A      3.979687  
     154A      4.089696   155A      4.205428   156A      5.158755  
     157A      5.245119   158A      5.271205   159A      5.512575  
     160A      5.752255   161A      5.820826   162A     23.954700  
     163A     23.999093   164A     24.046260   165A     50.014992  
     166A     50.084441  

    Final Occupation by Irrep:
              A 
    DOCC [    21 ]

  Energy converged.

  @DF-RKS Final Energy:  -269.51523202502131

   => Energetics <=

    Nuclear Repulsion Energy =            181.7472155447131854
    One-Electron Energy =                -726.4093696196043766
    Two-Electron Energy =                 292.6652902536188776
    DFT Exchange-Correlation Energy =     -17.5183682037489987
    Empirical Dispersion Energy =           0.0000000000000000
    VV10 Nonlocal Energy =                  0.0000000000000000
    Total Energy =                       -269.5152320250213052



Properties will be evaluated at   0.000000,   0.000000,   0.000000 [a0]

Properties computed using the SCF density matrix

  Nuclear Dipole Moment: [e a0]
     X:     3.9551      Y:     1.4424      Z:     1.4473

  Electronic Dipole Moment: [e a0]
     X:    -3.1780      Y:    -1.3939      Z:    -1.3068

  Dipole Moment: [e a0]
     X:     0.7771      Y:     0.0486      Z:     0.1405     Total:     0.7912

  Dipole Moment: [D]
     X:     1.9751      Y:     0.1235      Z:     0.3571     Total:     2.0110


*** tstop() called on localhost.localdomain at Mon May 13 09:38:32 2019
Module time:
	user time   =     207.75 seconds =       3.46 minutes
	system time =       5.99 seconds =       0.10 minutes
	total time  =          8 seconds =       0.13 minutes
Total time:
	user time   =     207.75 seconds =       3.46 minutes
	system time =       5.99 seconds =       0.10 minutes
	total time  =          8 seconds =       0.13 minutes

*** tstart() called on localhost.localdomain
*** at Mon May 13 09:38:32 2019


         ------------------------------------------------------------
                                   SCF GRAD                          
                          Rob Parrish, Justin Turney,                
                       Andy Simmonett, and Alex Sokolov              
         ------------------------------------------------------------

  ==> Geometry <==

    Molecular point group: c1
    Full point group: C1

    Geometry (in Angstrom), charge = 0, multiplicity = 1:

       Center              X                  Y                   Z               Mass       
    ------------   -----------------  -----------------  -----------------  -----------------
         C           -0.190508602311    -1.136710097258     0.066469259906    12.000000000000
         O           -1.141435599203    -1.006428605061    -0.660196610617    15.994914619560
         H            0.632305702324    -0.540439499912     1.941670338592     1.007825032070
         H           -1.155245410890    -0.575198437565     1.889071910323     1.007825032070
         H            1.302222471948     2.533759956160    -1.369966651607     1.007825032070
         C            1.290484544975     1.542377185267    -0.907772073782    12.000000000000
         H            1.239414436659     0.782481281695    -1.695337002840     1.007825032070
         H            2.219231195403     1.409688926285    -0.352876787808     1.007825032070
         O            0.231573869162     1.408458929553     0.020837295349    15.994914619560
         H           -0.600073093274     1.370663452171    -0.457147494129     1.007825032070
         C           -0.241932803606    -1.070588973210     1.563578607046    12.000000000000
         H           -0.222671301446    -2.092210471982     1.956961245196     1.007825032070
         H            0.808409265442    -1.352147227631    -0.365293384448     1.007825032070

  Nuclear repulsion =  181.747215544713185

  ==> Basis Set <==

  Basis Set: 6-311++G(D,P)
    Blend: 6-311++G(D,P)
    Number of shells: 90
    Number of basis function: 166
    Number of Cartesian functions: 171
    Spherical Harmonics?: true
    Max angular momentum: 2

  ==> DFJKGrad: Density-Fitted SCF Gradients <==

    Gradient:                    1
    J tasked:                  Yes
    K tasked:                  Yes
    wK tasked:                  No
    OpenMP threads:             32
    Integrals threads:          32
    Memory (MB):               375
    Schwarz Cutoff:          0E+00
    Fitting Condition:       1E-12

   => Auxiliary Basis Set <=

  Basis Set: (6-311++G(D,P) AUX)
    Blend: AUG-CC-PVTZ-JKFIT
    Number of shells: 262
    Number of basis function: 888
    Number of Cartesian functions: 1095
    Spherical Harmonics?: true
    Max angular momentum: 4

  ==> DFT Potential <==

   => Composite Functional: M06-2X <= 

    Hybrid M06-2X Meta-GGA XC Functional

    Y. Zhao and D. G. Truhlar,  Theor. Chem. Acc., 120, 215, 2008


    Deriv               =              1
    GGA                 =           TRUE
    Meta                =           TRUE

    Exchange Hybrid     =           TRUE
    MP2 Hybrid          =          FALSE

   => Exchange Functionals <=

    1.0000   XC_HYB_MGGA_X_M06_2X

   => Exact (HF) Exchange <=

    0.5400               HF 

   => Correlation Functionals <=

    1.0000   XC_MGGA_C_M06_2X

   => Molecular Quadrature <=

    Radial Scheme       =       TREUTLER
    Pruning Scheme      =           FLAT
    Nuclear Scheme      =       TREUTLER

    BS radius alpha     =              1
    Pruning alpha       =              1
    Radial Points       =             75
    Spherical Points    =            302
    Total Points        =         294450
    Total Blocks        =           2242
    Max Points          =            256
    Max Functions       =            165


  -Total Gradient:
     Atom            X                  Y                   Z
    ------   -----------------  -----------------  -----------------
       1        0.000669572622     0.002163397627    -0.000228850078
       2        0.000345727166     0.001452065742     0.000082227641
       3        0.000188185560    -0.000179411079     0.000060629452
       4        0.000182472209     0.000263633182     0.000021244362
       5       -0.000012251313    -0.000015605802     0.000201895550
       6       -0.000385190333    -0.000963303513     0.000772805203
       7        0.000061693986     0.000022809479    -0.000044518458
       8       -0.000061873083    -0.000137031469     0.000145071202
       9       -0.003028761173    -0.003758476502    -0.001440787648
      10        0.001230306516    -0.000092367019     0.000616517722
      11        0.000822063852     0.000888198645    -0.000127780869
      12       -0.000205119160     0.000030982913    -0.000105720096
      13        0.000070478306     0.000315664240    -0.000044875177


*** tstop() called on localhost.localdomain at Mon May 13 09:38:36 2019
Module time:
	user time   =      82.38 seconds =       1.37 minutes
	system time =       3.87 seconds =       0.06 minutes
	total time  =          4 seconds =       0.07 minutes
Total time:
	user time   =     290.18 seconds =       4.84 minutes
	system time =       9.86 seconds =       0.16 minutes
	total time  =         12 seconds =       0.20 minutes

			-----------------------------------------
			 OPTKING 2.0: for geometry optimizations 
			  - R.A. King,  Bethel University        
			-----------------------------------------

	Internal coordinates to be generated automatically.
	Detected frag 1 with atoms:  1 2 3 4 11 12 13
	Detected frag 2 with atoms:  5 6 7 8 9 10
	Unifying fragments since fragment_mode == SINGLE
	Increasing scaling to  2.200 to connect fragments.
	Increasing scaling to  2.600 to connect fragments.
	Connecting fragments 1 and 2
	---Fragment 1 Bond Connectivity---
	 1 : 2 11 13
	 2 : 1 10
	 3 : 11
	 4 : 11
	 5 : 6
	 6 : 5 7 8 9
	 7 : 6
	 8 : 6
	 9 : 6 10
	 10 : 2 9
	 11 : 1 3 4 12
	 12 : 11
	 13 : 1

	---Fragment 1 Geometry and Gradient---
	 C          -0.3600090843       -2.1480707763        0.1256086975
	 O          -2.1570006808       -1.9018744359       -1.2475907879
	 H           1.1948846097       -1.0212826462        3.6692251803
	 H          -2.1830974429       -1.0869675191        3.5698285558
	 H           2.4608438361        4.7881124036       -2.5888617827
	 C           2.4386623687        2.9146704738       -1.7154406105
	 H           2.3421538504        1.4786753265       -3.2037226383
	 H           4.1937391849        2.6639260032       -0.6668404876
	 O           0.4376111922        2.6616016463        0.0393767816
	 H          -1.1339738060        2.5901785450       -0.8638835662
	 C          -0.4571867414       -2.0231199603        2.9547353546
	 H          -0.4207877774       -3.9537048044        3.6981208061
	 H           1.5276721150       -2.5551879516       -0.6903044548
	             0.0006695726        0.0021633976       -0.0002288501
	             0.0003457272        0.0014520657        0.0000822276
	             0.0001881856       -0.0001794111        0.0000606295
	             0.0001824722        0.0002636332        0.0000212444
	            -0.0000122513       -0.0000156058        0.0002018956
	            -0.0003851903       -0.0009633035        0.0007728052
	             0.0000616940        0.0000228095       -0.0000445185
	            -0.0000618731       -0.0001370315        0.0001450712
	            -0.0030287612       -0.0037584765       -0.0014407876
	             0.0012303065       -0.0000923670        0.0006165177
	             0.0008220639        0.0008881986       -0.0001277809
	            -0.0002051192        0.0000309829       -0.0001057201
	             0.0000704783        0.0003156642       -0.0000448752

	Previous optimization step data not found.  Starting new optimization.

	---Fragment 1 Intrafragment Coordinates---
	 - Coordinate -           - BOHR/RAD -       - ANG/DEG -
	 R(1,2)           =         2.274966	       1.203860
	 R(1,11)          =         2.833551	       1.499451
	 R(1,13)          =         2.096378	       1.109355
	 R(2,10)          =         4.623024	       2.446399
	 R(3,11)          =         2.059979	       1.090094
	 R(4,11)          =         2.057544	       1.088806
	 R(5,6)           =         2.067158	       1.093893
	 R(6,7)           =         2.070357	       1.095586
	 R(6,8)           =         2.059789	       1.089993
	 R(6,9)           =         2.673506	       1.414758
	 R(9,10)          =         1.814073	       0.959966
	 R(11,12)         =         2.069083	       1.094912
	 B(1,2,10)        =         1.450767	      83.122803
	 B(1,11,3)        =         1.917972	     109.891686
	 B(1,11,4)        =         1.925497	     110.322844
	 B(1,11,12)       =         1.893333	     108.479964
	 B(2,1,11)        =         2.178287	     124.806639
	 B(2,1,13)        =         2.091341	     119.824990
	 B(2,10,9)        =         1.845532	     105.741209
	 B(3,11,4)        =         1.925977	     110.350328
	 B(3,11,12)       =         1.891313	     108.364250
	 B(4,11,12)       =         1.909093	     109.382955
	 B(5,6,7)         =         1.902198	     108.987897
	 B(5,6,8)         =         1.892603	     108.438151
	 B(5,6,9)         =         1.951045	     111.786653
	 B(6,9,10)        =         1.902159	     108.985706
	 B(7,6,8)         =         1.897834	     108.737892
	 B(7,6,9)         =         1.951196	     111.795277
	 B(8,6,9)         =         1.867197	     106.982505
	 B(11,1,13)       =         2.013118	     115.343144
	 D(1,2,10,9)      =         0.124995	       7.161660
	 D(2,1,11,3)      =        -2.452663	    -140.527213
	 D(2,1,11,4)      =        -0.325172	     -18.630960
	 D(2,1,11,12)     =         1.765684	     101.166227
	 D(2,10,9,6)      =         1.697343	      97.250564
	 D(3,11,1,13)     =         0.721015	      41.311123
	 D(4,11,1,13)     =         2.848506	     163.207376
	 D(5,6,9,10)      =         1.238842	      70.980426
	 D(7,6,9,10)      =        -0.899072	     -51.513027
	 D(8,6,9,10)      =        -2.974935	    -170.451204
	 D(10,2,1,11)     =         1.509694	      86.499078
	 D(10,2,1,13)     =        -1.665324	     -95.416019
	 D(12,11,1,13)    =        -1.343824	     -76.995436
	 R(1,6)           =         6.070698	       3.212475
	 R(9,11)          =         5.589865	       2.958029

	Current energy   :      -269.5152320250

	Generating empirical Hessian (Schlegel '84) for each fragment.
	Taking RFO optimization step.
	Going to follow RFO solution 1.
	Using RFO vector 1.
	Norm of target step-size    0.38323
	Projected energy change by RFO approximation:        -0.0012278910

	Back-transformation to cartesian coordinates...
	Could not converge backtransformation.
	Using first guess instead.

	--- Internal Coordinate Step in ANG or DEG, aJ/ANG or AJ/DEG ---
	 ---------------------------------------------------------------------------
	   Coordinate                Previous        Force       Change         New 
	   ----------                --------       ------       ------       ------
	    1 R(1,2)          =      1.203860    -0.007978     0.004731     1.208591
	    2 R(1,11)         =      1.499451    -0.005364     0.005859     1.505310
	    3 R(1,13)         =      1.109355    -0.000151     0.005466     1.114821
	    4 R(2,10)         =      2.446399     0.015700     0.056753     2.503152
	    5 R(3,11)         =      1.090094    -0.000658     0.006582     1.096676
	    6 R(4,11)         =      1.088806     0.000234     0.005573     1.094378
	    7 R(5,6)          =      1.093893     0.000883     0.003721     1.097614
	    8 R(6,7)          =      1.095586     0.000012     0.007826     1.103412
	    9 R(6,8)          =      1.089993    -0.000551     0.016147     1.106140
	   10 R(6,9)          =      1.414758    -0.002541     0.020913     1.435672
	   11 R(9,10)         =      0.959966     0.022327     0.015376     0.975342
	   12 R(11,12)        =      1.094912     0.000546     0.000443     1.095355
	   13 B(1,2,10)       =     83.122803    -0.000081    -1.291595    81.831208
	   14 B(1,11,3)       =    109.891686    -0.000002     0.037396   109.929082
	   15 B(1,11,4)       =    110.322844    -0.000007     0.151338   110.474182
	   16 B(1,11,12)      =    108.479964     0.000011    -0.110643   108.369321
	   17 B(2,1,11)       =    124.806639    -0.000123    -0.347091   124.459548
	   18 B(2,1,13)       =    119.824990     0.000064     0.048758   119.873749
	   19 B(2,10,9)       =    105.741209     0.000215    -0.573023   105.168185
	   20 B(3,11,4)       =    110.350328     0.000003     0.064784   110.415111
	   21 B(3,11,12)      =    108.364250    -0.000001     0.052114   108.416364
	   22 B(4,11,12)      =    109.382955    -0.000005    -0.201912   109.181043
	   23 B(5,6,7)        =    108.987897    -0.000009    -0.848434   108.139463
	   24 B(5,6,8)        =    108.438151    -0.000007     0.044633   108.482784
	   25 B(5,6,9)        =    111.786653     0.000009     0.214678   112.001332
	   26 B(6,9,10)       =    108.985706    -0.000212    -0.961489   108.024217
	   27 B(7,6,8)        =    108.737892     0.000001     0.306075   109.043967
	   28 B(7,6,9)        =    111.795277    -0.000019     0.160626   111.955903
	   29 B(8,6,9)        =    106.982505     0.000025     0.148420   107.130926
	   30 B(11,1,13)      =    115.343144     0.000059     0.312069   115.655212
	   31 D(1,2,10,9)     =      7.161660     0.000017    15.380620    22.542280
	   32 D(2,1,11,3)     =   -140.527213     0.000007     3.694462  -136.832751
	   33 D(2,1,11,4)     =    -18.630960     0.000007     3.900380   -14.730580
	   34 D(2,1,11,12)    =    101.166227     0.000006     3.675421   104.841648
	   35 D(2,10,9,6)     =     97.250564    -0.000040    -7.679922    89.570642
	   36 D(3,11,1,13)    =     41.311123     0.000003     0.616689    41.927812
	   37 D(4,11,1,13)    =    163.207376     0.000003     0.822607   164.029983
	   38 D(5,6,9,10)     =     70.980426    -0.000006    -2.734607    68.245820
	   39 D(7,6,9,10)     =    -51.513027    -0.000001    -1.904634   -53.417661
	   40 D(8,6,9,10)     =   -170.451204    -0.000003    -2.464923  -172.916127
	   41 D(10,2,1,11)    =     86.499078    -0.000007    -3.446099    83.052979
	   42 D(10,2,1,13)    =    -95.416019    -0.000003    -0.242543   -95.658562
	   43 D(12,11,1,13)   =    -76.995436     0.000002     0.597648   -76.397789
	   44 R(1,6)          =      3.212475     0.018467     0.050989     3.263464
	   45 R(9,11)         =      2.958029     0.013510     0.079302     3.037331
	 ---------------------------------------------------------------------------
	Successfully symmetrized geometry.

  ==> Convergence Check <==

  Measures of convergence in internal coordinates in au.
  Criteria marked as inactive (o), active & met (*), and active & unmet ( ).
  --------------------------------------------------------------------------------------------- ~
   Step     Total Energy     Delta E     MAX Force     RMS Force      MAX Disp      RMS Disp    ~
  --------------------------------------------------------------------------------------------- ~
    Convergence Criteria    1.00e-06 *    3.00e-04 *             o    1.20e-03 *             o  ~
  --------------------------------------------------------------------------------------------- ~
      1    -269.51523203   -2.70e+02      2.83e-03      1.03e-03 o    2.68e-01      5.98e-02 o  ~
  ---------------------------------------------------------------------------------------------

	Writing optimization data to binary file.
	Structure for next step:
	Cartesian Geometry (in Angstrom)
	    C    -0.1324676690  -1.1495671084   0.0989968476
	    O    -1.0139271508  -0.9840276134  -0.7111371242
	    H     0.4797724009  -0.5557513720   2.0653644023
	    H    -1.3009871398  -0.6815573164   1.8401488656
	    H     1.2223745086   2.5605485642  -1.4655967449
	    C     1.2988089086   1.5700455247  -0.9988869835
	    H     1.1169411354   0.8088390163  -1.7767087872
	    H     2.3251612460   1.4460227712  -0.6054843307
	    O     0.4001851450   1.4279985340   0.1117214980
	    H    -0.5109656921   1.4216417442  -0.2362089081
	    C    -0.3306938365  -1.1221171738   1.5909459242
	    H    -0.2968951041  -2.1519152725   1.9626660283
	    H     0.9144679230  -1.3164538796  -0.2458220364
			--------------------------
			 OPTKING Finished Execution 
			--------------------------

    Structure for next step:
    Molecular point group: c1
    Full point group: C1

    Geometry (in Angstrom), charge = 0, multiplicity = 1:

    C           -0.187584842926    -1.152525188611     0.095637797907
    O           -1.069044324809    -0.986985693646    -0.714496173869
    H            0.424655226966    -0.558709452229     2.062005352568
    H           -1.356104313783    -0.684515396578     1.836789815943
    H            1.167257334610     2.557590483998    -1.468955794581
    C            1.243691734630     1.567087444514    -1.002246033229
    H            1.061823961421     0.805880936120    -1.780067836895
    H            2.270044072059     1.443064691008    -0.608843380351
    O            0.345067971044     1.425040453818     0.108362448255
    H           -0.566082866099     1.418683664046    -0.239567957774
    C           -0.385811010510    -1.125075254032     1.587586874539
    H           -0.352012278036    -2.154873352728     1.959306978651
    H            0.859350749031    -1.319411959801    -0.249181086071

gradient() will perform analytic gradient computation.

*** tstart() called on localhost.localdomain
*** at Mon May 13 09:38:36 2019

   => Loading Basis Set <=

    Name: 6-311++G(D,P)
    Role: ORBITAL
    Keyword: BASIS
    atoms 1, 6, 11            entry C          line   119 file /root/psi4conda/share/psi4/basis/6-311ppg_d_p_.gbs 
    atoms 2, 9                entry O          line   161 file /root/psi4conda/share/psi4/basis/6-311ppg_d_p_.gbs 
    atoms 3-5, 7-8, 10, 12-13 entry H          line    42 file /root/psi4conda/share/psi4/basis/6-311ppg_d_p_.gbs 


         ---------------------------------------------------------
                                   SCF
            by Justin Turney, Rob Parrish, Andy Simmonett
                             and Daniel Smith
                              RKS Reference
                       32 Threads,    500 MiB Core
         ---------------------------------------------------------

  ==> Geometry <==

    Molecular point group: c1
    Full point group: C1

    Geometry (in Angstrom), charge = 0, multiplicity = 1:

       Center              X                  Y                   Z               Mass       
    ------------   -----------------  -----------------  -----------------  -----------------
         C           -0.187584842926    -1.152525188611     0.095637797907    12.000000000000
         O           -1.069044324809    -0.986985693646    -0.714496173869    15.994914619560
         H            0.424655226966    -0.558709452229     2.062005352568     1.007825032070
         H           -1.356104313783    -0.684515396578     1.836789815943     1.007825032070
         H            1.167257334610     2.557590483998    -1.468955794581     1.007825032070
         C            1.243691734630     1.567087444514    -1.002246033229    12.000000000000
         H            1.061823961421     0.805880936120    -1.780067836895     1.007825032070
         H            2.270044072059     1.443064691008    -0.608843380351     1.007825032070
         O            0.345067971044     1.425040453818     0.108362448255    15.994914619560
         H           -0.566082866099     1.418683664046    -0.239567957774     1.007825032070
         C           -0.385811010510    -1.125075254032     1.587586874539    12.000000000000
         H           -0.352012278036    -2.154873352728     1.959306978651     1.007825032070
         H            0.859350749031    -1.319411959801    -0.249181086071     1.007825032070

  Running in c1 symmetry.

  Rotational constants: A =      0.24996  B =      0.08614  C =      0.07282 [cm^-1]
  Rotational constants: A =   7493.55111  B =   2582.33570  C =   2183.15006 [MHz]
  Nuclear repulsion =  179.894053059824671

  Charge       = 0
  Multiplicity = 1
  Electrons    = 42
  Nalpha       = 21
  Nbeta        = 21

  ==> Algorithm <==

  SCF Algorithm Type is DF.
  DIIS enabled.
  MOM disabled.
  Fractional occupation disabled.
  Guess Type is READ.
  Energy threshold   = 1.00e-08
  Density threshold  = 1.00e-08
  Integral threshold = 0.00e+00

  ==> Primary Basis <==

  Basis Set: 6-311++G(D,P)
    Blend: 6-311++G(D,P)
    Number of shells: 90
    Number of basis function: 166
    Number of Cartesian functions: 171
    Spherical Harmonics?: true
    Max angular momentum: 2

  ==> DFT Potential <==

   => Composite Functional: M06-2X <= 

    Hybrid M06-2X Meta-GGA XC Functional

    Y. Zhao and D. G. Truhlar,  Theor. Chem. Acc., 120, 215, 2008


    Deriv               =              1
    GGA                 =           TRUE
    Meta                =           TRUE

    Exchange Hybrid     =           TRUE
    MP2 Hybrid          =          FALSE

   => Exchange Functionals <=

    1.0000   XC_HYB_MGGA_X_M06_2X

   => Exact (HF) Exchange <=

    0.5400               HF 

   => Correlation Functionals <=

    1.0000   XC_MGGA_C_M06_2X

   => Molecular Quadrature <=

    Radial Scheme       =       TREUTLER
    Pruning Scheme      =           FLAT
    Nuclear Scheme      =       TREUTLER

    BS radius alpha     =              1
    Pruning alpha       =              1
    Radial Points       =             75
    Spherical Points    =            302
    Total Points        =         294450
    Total Blocks        =           2247
    Max Points          =            256
    Max Functions       =            166

   => Loading Basis Set <=

    Name: (6-311++G(D,P) AUX)
    Role: JKFIT
    Keyword: DF_BASIS_SCF
    atoms 1, 6, 11            entry C          line   162 file /root/psi4conda/share/psi4/basis/aug-cc-pvtz-jkfit.gbs 
    atoms 2, 9                entry O          line   286 file /root/psi4conda/share/psi4/basis/aug-cc-pvtz-jkfit.gbs 
    atoms 3-5, 7-8, 10, 12-13 entry H          line    70 file /root/psi4conda/share/psi4/basis/aug-cc-pvtz-jkfit.gbs 

  Reading orbitals from file 180, no projection.

  ==> Pre-Iterations <==

   -------------------------------------------------------
    Irrep   Nso     Nmo     Nalpha   Nbeta   Ndocc  Nsocc
   -------------------------------------------------------
     A        166     166       0       0       0       0
   -------------------------------------------------------
    Total     166     166      21      21      21       0
   -------------------------------------------------------

  ==> Integral Setup <==

  DFHelper Memory: AOs need 0.235 [GiB]; user supplied 0.366 [GiB]. Using in-core AOs.

  ==> MemDFJK: Density-Fitted J/K Matrices <==

    J tasked:                   Yes
    K tasked:                   Yes
    wK tasked:                   No
    OpenMP threads:              32
    Memory (MB):                375
    Algorithm:                 Core
    Schwarz Cutoff:           1E-12
    Mask sparsity (%):       3.7378
    Fitting Condition:        1E-12

   => Auxiliary Basis Set <=

  Basis Set: (6-311++G(D,P) AUX)
    Blend: AUG-CC-PVTZ-JKFIT
    Number of shells: 262
    Number of basis function: 888
    Number of Cartesian functions: 1095
    Spherical Harmonics?: true
    Max angular momentum: 4

  Minimum eigenvalue in the overlap matrix is 6.8231765938E-05.
  Using Symmetric Orthogonalization.

  SCF Guess: Orbitals guess was supplied from a previous computation.

  ==> Iterations <==

                           Total Energy        Delta E     RMS |[F,P]|

   @DF-RKS iter   0:  -269.42386641458324   -2.69424e+02   8.57955e-03 
   @DF-RKS iter   1:  -269.51326737804675   -8.94010e-02   1.51626e-03 
   @DF-RKS iter   2:  -269.51447443869142   -1.20706e-03   1.17792e-03 DIIS
   @DF-RKS iter   3:  -269.51540654411929   -9.32105e-04   2.36484e-04 DIIS
   @DF-RKS iter   4:  -269.51545517842709   -4.86343e-05   1.43574e-04 DIIS
   @DF-RKS iter   5:  -269.51547151366776   -1.63352e-05   3.62262e-05 DIIS
   @DF-RKS iter   6:  -269.51547327001509   -1.75635e-06   2.67151e-05 DIIS
   @DF-RKS iter   7:  -269.51547373059833   -4.60583e-07   4.33537e-06 DIIS
   @DF-RKS iter   8:  -269.51547388631076   -1.55712e-07   2.38648e-06 DIIS
   @DF-RKS iter   9:  -269.51547390123693   -1.49262e-08   7.19553e-07 DIIS
   @DF-RKS iter  10:  -269.51547390223652   -9.99592e-10   1.76789e-07 DIIS
   @DF-RKS iter  11:  -269.51547390229786   -6.13340e-11   4.44626e-08 DIIS
   @DF-RKS iter  12:  -269.51547390230161   -3.75167e-12   7.67886e-09 DIIS

  ==> Post-Iterations <==

    Orbital Energies [Eh]
    ---------------------

    Doubly Occupied:                                                      

       1A    -19.630097     2A    -19.622996     3A    -10.635450  
       4A    -10.587337     5A    -10.541390     6A     -1.175154  
       7A     -1.142914     8A     -0.844280     9A     -0.779333  
      10A     -0.664126    11A     -0.588437    12A     -0.558018  
      13A     -0.529969    14A     -0.513274    15A     -0.507645  
      16A     -0.495328    17A     -0.459198    18A     -0.433190  
      19A     -0.415845    20A     -0.359713    21A     -0.330501  

    Virtual:                                                              

      22A     -0.003353    23A      0.009818    24A      0.012899  
      25A      0.018485    26A      0.027818    27A      0.037020  
      28A      0.042884    29A      0.051175    30A      0.062790  
      31A      0.071200    32A      0.088113    33A      0.092028  
      34A      0.101398    35A      0.110230    36A      0.122962  
      37A      0.126892    38A      0.138704    39A      0.140677  
      40A      0.146410    41A      0.151935    42A      0.169768  
      43A      0.201171    44A      0.211284    45A      0.213396  
      46A      0.216997    47A      0.221786    48A      0.243943  
      49A      0.253930    50A      0.261168    51A      0.276954  
      52A      0.288812    53A      0.300635    54A      0.321125  
      55A      0.337164    56A      0.342059    57A      0.347906  
      58A      0.352920    59A      0.362285    60A      0.405373  
      61A      0.439543    62A      0.466080    63A      0.479574  
      64A      0.491523    65A      0.542952    66A      0.581898  
      67A      0.586488    68A      0.608873    69A      0.624676  
      70A      0.669037    71A      0.687373    72A      0.692153  
      73A      0.697134    74A      0.706596    75A      0.719708  
      76A      0.741748    77A      0.765160    78A      0.768960  
      79A      0.901078    80A      0.924606    81A      0.969267  
      82A      1.025934    83A      1.047874    84A      1.077356  
      85A      1.123033    86A      1.160258    87A      1.187738  
      88A      1.236712    89A      1.254111    90A      1.270689  
      91A      1.337965    92A      1.375512    93A      1.462226  
      94A      1.467428    95A      1.491171    96A      1.495900  
      97A      1.512813    98A      1.537131    99A      1.562902  
     100A      1.584911   101A      1.593460   102A      1.606603  
     103A      1.635743   104A      1.653091   105A      1.686074  
     106A      1.725104   107A      1.734476   108A      1.779925  
     109A      1.803241   110A      1.824770   111A      1.898046  
     112A      1.958861   113A      1.963051   114A      2.043636  
     115A      2.075696   116A      2.113646   117A      2.157279  
     118A      2.175035   119A      2.246346   120A      2.262207  
     121A      2.351249   122A      2.442011   123A      2.475873  
     124A      2.491752   125A      2.519758   126A      2.529900  
     127A      2.538625   128A      2.558904   129A      2.568117  
     130A      2.608959   131A      2.617992   132A      2.690064  
     133A      2.722133   134A      2.751972   135A      2.872588  
     136A      2.915678   137A      2.940240   138A      2.977806  
     139A      2.991188   140A      3.041064   141A      3.151177  
     142A      3.202553   143A      3.252476   144A      3.328528  
     145A      3.415165   146A      3.543635   147A      3.552622  
     148A      3.778597   149A      3.819174   150A      3.837066  
     151A      3.881961   152A      3.936240   153A      3.944940  
     154A      4.077760   155A      4.195742   156A      5.158814  
     157A      5.236654   158A      5.268104   159A      5.485665  
     160A      5.702323   161A      5.813025   162A     23.937795  
     163A     23.973912   164A     24.031768   165A     50.003732  
     166A     50.078126  

    Final Occupation by Irrep:
              A 
    DOCC [    21 ]

  Energy converged.

  @DF-RKS Final Energy:  -269.51547390230161

   => Energetics <=

    Nuclear Repulsion Energy =            179.8940530598246710
    One-Electron Energy =                -722.7764822798098976
    Two-Electron Energy =                 290.8656903514161627
    DFT Exchange-Correlation Energy =     -17.4987350337325829
    Empirical Dispersion Energy =           0.0000000000000000
    VV10 Nonlocal Energy =                  0.0000000000000000
    Total Energy =                       -269.5154739023016077



Properties will be evaluated at   0.000000,   0.000000,   0.000000 [a0]

Properties computed using the SCF density matrix

  Nuclear Dipole Moment: [e a0]
     X:     3.2860      Y:     1.4155      Z:     1.4141

  Electronic Dipole Moment: [e a0]
     X:    -2.6836      Y:    -1.3926      Z:    -1.2076

  Dipole Moment: [e a0]
     X:     0.6024      Y:     0.0229      Z:     0.2065     Total:     0.6372

  Dipole Moment: [D]
     X:     1.5312      Y:     0.0583      Z:     0.5248     Total:     1.6197


*** tstop() called on localhost.localdomain at Mon May 13 09:38:43 2019
Module time:
	user time   =     170.22 seconds =       2.84 minutes
	system time =       3.56 seconds =       0.06 minutes
	total time  =          7 seconds =       0.12 minutes
Total time:
	user time   =     462.26 seconds =       7.70 minutes
	system time =      13.57 seconds =       0.23 minutes
	total time  =         19 seconds =       0.32 minutes

*** tstart() called on localhost.localdomain
*** at Mon May 13 09:38:43 2019


         ------------------------------------------------------------
                                   SCF GRAD                          
                          Rob Parrish, Justin Turney,                
                       Andy Simmonett, and Alex Sokolov              
         ------------------------------------------------------------

  ==> Geometry <==

    Molecular point group: c1
    Full point group: C1

    Geometry (in Angstrom), charge = 0, multiplicity = 1:

       Center              X                  Y                   Z               Mass       
    ------------   -----------------  -----------------  -----------------  -----------------
         C           -0.187584842926    -1.152525188611     0.095637797907    12.000000000000
         O           -1.069044324809    -0.986985693646    -0.714496173869    15.994914619560
         H            0.424655226966    -0.558709452229     2.062005352568     1.007825032070
         H           -1.356104313783    -0.684515396578     1.836789815943     1.007825032070
         H            1.167257334610     2.557590483998    -1.468955794581     1.007825032070
         C            1.243691734630     1.567087444514    -1.002246033229    12.000000000000
         H            1.061823961421     0.805880936120    -1.780067836895     1.007825032070
         H            2.270044072059     1.443064691008    -0.608843380351     1.007825032070
         O            0.345067971044     1.425040453818     0.108362448255    15.994914619560
         H           -0.566082866099     1.418683664046    -0.239567957774     1.007825032070
         C           -0.385811010510    -1.125075254032     1.587586874539    12.000000000000
         H           -0.352012278036    -2.154873352728     1.959306978651     1.007825032070
         H            0.859350749031    -1.319411959801    -0.249181086071     1.007825032070

  Nuclear repulsion =  179.894053059824643

  ==> Basis Set <==

  Basis Set: 6-311++G(D,P)
    Blend: 6-311++G(D,P)
    Number of shells: 90
    Number of basis function: 166
    Number of Cartesian functions: 171
    Spherical Harmonics?: true
    Max angular momentum: 2

  ==> DFJKGrad: Density-Fitted SCF Gradients <==

    Gradient:                    1
    J tasked:                  Yes
    K tasked:                  Yes
    wK tasked:                  No
    OpenMP threads:             32
    Integrals threads:          32
    Memory (MB):               375
    Schwarz Cutoff:          0E+00
    Fitting Condition:       1E-12

   => Auxiliary Basis Set <=

  Basis Set: (6-311++G(D,P) AUX)
    Blend: AUG-CC-PVTZ-JKFIT
    Number of shells: 262
    Number of basis function: 888
    Number of Cartesian functions: 1095
    Spherical Harmonics?: true
    Max angular momentum: 4

  ==> DFT Potential <==

   => Composite Functional: M06-2X <= 

    Hybrid M06-2X Meta-GGA XC Functional

    Y. Zhao and D. G. Truhlar,  Theor. Chem. Acc., 120, 215, 2008


    Deriv               =              1
    GGA                 =           TRUE
    Meta                =           TRUE

    Exchange Hybrid     =           TRUE
    MP2 Hybrid          =          FALSE

   => Exchange Functionals <=

    1.0000   XC_HYB_MGGA_X_M06_2X

   => Exact (HF) Exchange <=

    0.5400               HF 

   => Correlation Functionals <=

    1.0000   XC_MGGA_C_M06_2X

   => Molecular Quadrature <=

    Radial Scheme       =       TREUTLER
    Pruning Scheme      =           FLAT
    Nuclear Scheme      =       TREUTLER

    BS radius alpha     =              1
    Pruning alpha       =              1
    Radial Points       =             75
    Spherical Points    =            302
    Total Points        =         294450
    Total Blocks        =           2247
    Max Points          =            256
    Max Functions       =            166


  -Total Gradient:
     Atom            X                  Y                   Z
    ------   -----------------  -----------------  -----------------
       1        0.002375076531    -0.005389169948     0.003610734516
       2       -0.005567843547     0.003754712087    -0.005439693407
       3        0.003034243019     0.001976319549     0.002455025143
       4       -0.002845081279     0.001651090700     0.001285110170
       5        0.000329446394     0.001774888488    -0.002735258401
       6       -0.001725241910     0.002497794759    -0.004701324593
       7       -0.000205919229    -0.002157281188    -0.005487344412
       8        0.010481304224    -0.001052635353     0.003063542465
       9        0.002522214342    -0.003890580526     0.014055443519
      10       -0.012754227013    -0.000073315535    -0.004353898570
      11        0.000344170268    -0.000290182829     0.000294982946
      12       -0.000355015274    -0.000561325449    -0.000492608499
      13        0.004213401703     0.001835510459    -0.001505780894


*** tstop() called on localhost.localdomain at Mon May 13 09:38:46 2019
Module time:
	user time   =      82.95 seconds =       1.38 minutes
	system time =       3.54 seconds =       0.06 minutes
	total time  =          3 seconds =       0.05 minutes
Total time:
	user time   =     545.28 seconds =       9.09 minutes
	system time =      17.11 seconds =       0.29 minutes
	total time  =         22 seconds =       0.37 minutes

			-----------------------------------------
			 OPTKING 2.0: for geometry optimizations 
			  - R.A. King,  Bethel University        
			-----------------------------------------

	Previous internal coordinate definitions found.
	---Fragment 1 Geometry and Gradient---
	 C          -0.3544839798       -2.1779569677        0.1807292460
	 O          -2.0202009978       -1.8651326581       -1.3502020916
	 H           0.8024820799       -1.0558078526        3.8966254009
	 H          -2.5626657607       -1.2935466333        3.4710297158
	 H           2.2057966890        4.8331455748       -2.7759241531
	 C           2.3502367722        2.9613660964       -1.8939705206
	 H           2.0065564884        1.5228942650       -3.3638407097
	 H           4.2897616058        2.7269970580       -1.1505472467
	 O           0.6520839625        2.6929361860        0.2047753503
	 H          -1.0697415854        2.6809235942       -0.4527178304
	 C          -0.7290771489       -2.1260841090        3.0001044050
	 H          -0.6652068009       -4.0721204877        3.7025535999
	 H           1.6239375678       -2.4933272605       -0.4708840102
	             0.0023750765       -0.0053891699        0.0036107345
	            -0.0055678435        0.0037547121       -0.0054396934
	             0.0030342430        0.0019763195        0.0024550251
	            -0.0028450813        0.0016510907        0.0012851102
	             0.0003294464        0.0017748885       -0.0027352584
	            -0.0017252419        0.0024977948       -0.0047013246
	            -0.0002059192       -0.0021572812       -0.0054873444
	             0.0104813042       -0.0010526354        0.0030635425
	             0.0025222143       -0.0038905805        0.0140554435
	            -0.0127542270       -0.0000733155       -0.0043538986
	             0.0003441703       -0.0002901828        0.0002949829
	            -0.0003550153       -0.0005613254       -0.0004926085
	             0.0042134017        0.0018355105       -0.0015057809

	---Fragment 1 Intrafragment Coordinates---
	 - Coordinate -           - BOHR/RAD -       - ANG/DEG -
	 R(1,2)           =         2.283905	       1.208591
	 R(1,11)          =         2.844624	       1.505310
	 R(1,13)          =         2.106706	       1.114821
	 R(2,10)          =         4.730273	       2.503152
	 R(3,11)          =         2.072418	       1.096676
	 R(4,11)          =         2.068076	       1.094378
	 R(5,6)           =         2.074190	       1.097614
	 R(6,7)           =         2.085146	       1.103412
	 R(6,8)           =         2.090302	       1.106140
	 R(6,9)           =         2.713026	       1.435672
	 R(9,10)          =         1.843129	       0.975342
	 R(11,12)         =         2.069921	       1.095355
	 B(1,2,10)        =         1.428224	      81.831208
	 B(1,11,3)        =         1.918624	     109.929082
	 B(1,11,4)        =         1.928138	     110.474182
	 B(1,11,12)       =         1.891401	     108.369321
	 B(2,1,11)        =         2.172229	     124.459548
	 B(2,1,13)        =         2.092192	     119.873749
	 B(2,10,9)        =         1.835531	     105.168185
	 B(3,11,4)        =         1.927107	     110.415111
	 B(3,11,12)       =         1.892223	     108.416364
	 B(4,11,12)       =         1.905569	     109.181043
	 B(5,6,7)         =         1.887390	     108.139463
	 B(5,6,8)         =         1.893382	     108.482784
	 B(5,6,9)         =         1.954792	     112.001332
	 B(6,9,10)        =         1.885378	     108.024217
	 B(7,6,8)         =         1.903176	     109.043967
	 B(7,6,9)         =         1.953999	     111.955903
	 B(8,6,9)         =         1.869787	     107.130926
	 B(11,1,13)       =         2.018564	     115.655212
	 D(1,2,10,9)      =         0.393437	      22.542280
	 D(2,1,11,3)      =        -2.388182	    -136.832751
	 D(2,1,11,4)      =        -0.257097	     -14.730580
	 D(2,1,11,12)     =         1.829832	     104.841648
	 D(2,10,9,6)      =         1.563303	      89.570642
	 D(3,11,1,13)     =         0.731778	      41.927812
	 D(4,11,1,13)     =         2.862863	     164.029983
	 D(5,6,9,10)      =         1.191114	      68.245820
	 D(7,6,9,10)      =        -0.932314	     -53.417661
	 D(8,6,9,10)      =        -3.017956	    -172.916127
	 D(10,2,1,11)     =         1.449548	      83.052979
	 D(10,2,1,13)     =        -1.669557	     -95.658562
	 D(12,11,1,13)    =        -1.333393	     -76.397789
	 R(1,6)           =         6.167052	       3.263464
	 R(9,11)          =         5.739724	       3.037331

	Current energy   :      -269.5154739023

	Energy change for the previous step:
		Projected    :        -0.0012278910
		Actual       :        -0.0002418773
	Energy ratio indicates iffy step: Trust radius decreased to 1.250e-01.


	Performing BFGS update.
	Previous computed or guess Hessian on step 1.
	Steps to be used in Hessian update: 1
	Taking RFO optimization step.
	Going to follow RFO solution 1.
	Using RFO vector 1.

	Determining step-restricting scale parameter for RS-RFO.
	Maximum step size allowed    0.12500

	 Iter      |step|        alpha        rfo_root  
	------------------------------------------------
	    0     0.22439       1.00000           1
	    1     0.16179       2.67198           1
	    2     0.13402       4.21407           1
	    3     0.12585       4.87599           1
	    4     0.12501       4.95164           1
	------------------------------------------------
	Norm of target step-size    0.12501
	Projected energy change by RFO approximation:        -0.0030324249

	Back-transformation to cartesian coordinates...
	Could not converge backtransformation.
	Using first guess instead.

	--- Internal Coordinate Step in ANG or DEG, aJ/ANG or AJ/DEG ---
	 ---------------------------------------------------------------------------
	   Coordinate                Previous        Force       Change         New 
	   ----------                --------       ------       ------       ------
	    1 R(1,2)          =      1.208591    -0.076975    -0.003969     1.204622
	    2 R(1,11)         =      1.505310    -0.036713    -0.006032     1.499279
	    3 R(1,13)         =      1.114821    -0.034222    -0.004177     1.110644
	    4 R(2,10)         =      2.503152     0.016875     0.019227     2.522379
	    5 R(3,11)         =      1.096676    -0.035703    -0.005036     1.091640
	    6 R(4,11)         =      1.094378    -0.028649    -0.003888     1.090490
	    7 R(5,6)          =      1.097614    -0.022498    -0.002356     1.095258
	    8 R(6,7)          =      1.103412    -0.044546    -0.005389     1.098023
	    9 R(6,8)          =      1.106140    -0.090194    -0.011867     1.094274
	   10 R(6,9)          =      1.435672    -0.108433    -0.012661     1.423011
	   11 R(9,10)         =      0.975342    -0.100499    -0.008258     0.967084
	   12 R(11,12)        =      1.095355    -0.002849    -0.000266     1.095089
	   13 B(1,2,10)       =     81.831208    -0.000009    -0.394272    81.436936
	   14 B(1,11,3)       =    109.929082    -0.000077    -0.201833   109.727249
	   15 B(1,11,4)       =    110.474182    -0.000052    -0.181967   110.292215
	   16 B(1,11,12)      =    108.369321     0.000089     0.281992   108.651312
	   17 B(2,1,11)       =    124.459548    -0.000044    -0.169108   124.290441
	   18 B(2,1,13)       =    119.873749     0.000043     0.188575   120.062323
	   19 B(2,10,9)       =    105.168185     0.000326     0.767656   105.935841
	   20 B(3,11,4)       =    110.415111     0.000047     0.062605   110.477717
	   21 B(3,11,12)      =    108.416364    -0.000005    -0.029344   108.387020
	   22 B(4,11,12)      =    109.181043     0.000000     0.077286   109.258329
	   23 B(5,6,7)        =    108.139463     0.000217     0.699930   108.839393
	   24 B(5,6,8)        =    108.482784     0.000072     0.101073   108.583857
	   25 B(5,6,9)        =    112.001332    -0.000100    -0.185155   111.816177
	   26 B(6,9,10)       =    108.024217    -0.000182    -0.602882   107.421334
	   27 B(7,6,8)        =    109.043967     0.000065     0.074041   109.118008
	   28 B(7,6,9)        =    111.955903    -0.000172    -0.495487   111.460416
	   29 B(8,6,9)        =    107.130926    -0.000075    -0.190529   106.940397
	   30 B(11,1,13)      =    115.655212     0.000002    -0.007980   115.647233
	   31 D(1,2,10,9)     =     22.542280     0.000015     3.034845    25.577124
	   32 D(2,1,11,3)     =   -136.832751    -0.000003     0.458190  -136.374562
	   33 D(2,1,11,4)     =    -14.730580    -0.000009     0.283045   -14.447536
	   34 D(2,1,11,12)    =    104.841648    -0.000003     0.443238   105.284886
	   35 D(2,10,9,6)     =     89.570642     0.000007    -2.008038    87.562604
	   36 D(3,11,1,13)    =     41.927812     0.000019     1.719419    43.647231
	   37 D(4,11,1,13)    =    164.029983     0.000012     1.544274   165.574256
	   38 D(5,6,9,10)     =     68.245820     0.000003    -0.737183    67.508637
	   39 D(7,6,9,10)     =    -53.417661    -0.000016    -1.153594   -54.571256
	   40 D(8,6,9,10)     =   -172.916127    -0.000000    -0.839076  -173.755203
	   41 D(10,2,1,11)    =     83.052979    -0.000009    -0.669540    82.383439
	   42 D(10,2,1,13)    =    -95.658562    -0.000031    -1.980698   -97.639260
	   43 D(12,11,1,13)   =    -76.397789     0.000018     1.704467   -74.693322
	   44 R(1,6)          =      3.263464    -0.002743     0.008783     3.272247
	   45 R(9,11)         =      3.037331     0.015001     0.027275     3.064606
	 ---------------------------------------------------------------------------
	Successfully symmetrized geometry.

  ==> Convergence Check <==

  Measures of convergence in internal coordinates in au.
  Criteria marked as inactive (o), active & met (*), and active & unmet ( ).
  ---------------------------------------------------------------------------------------------
   Step     Total Energy     Delta E     MAX Force     RMS Force      MAX Disp      RMS Disp   
  ---------------------------------------------------------------------------------------------
    Convergence Criteria    1.00e-06 *    3.00e-04 *             o    1.20e-03 *             o
  ---------------------------------------------------------------------------------------------
      2    -269.51547390   -2.42e-04      1.32e-02      3.93e-03 o    5.30e-02      1.86e-02 o  ~
  ---------------------------------------------------------------------------------------------

	Writing optimization data to binary file.
	Structure for next step:
	Cartesian Geometry (in Angstrom)
	    C    -0.1735955510  -1.1573817893   0.1007657007
	    O    -1.0362050773  -0.9804717753  -0.7212568753
	    H     0.3995844318  -0.5701746246   2.0682673133
	    H    -1.3703933160  -0.6868686708   1.8087838785
	    H     1.1272572223   2.5553868817  -1.4912794243
	    C     1.2384323254   1.5762778583  -1.0131826736
	    H     1.0367790734   0.7937499521  -1.7565802305
	    H     2.2687199098   1.4764734169  -0.6582444283
	    O     0.3934378584   1.4441097323   0.1241283365
	    H    -0.5198650783   1.4314566507  -0.1936281666
	    C    -0.4007540245  -1.1315817198   1.5825113380
	    H    -0.3785401813  -2.1599765222   1.9581854776
	    H     0.8703938209  -1.3557480140  -0.2221392407
			--------------------------
			 OPTKING Finished Execution 
			--------------------------

    Structure for next step:
    Molecular point group: c1
    Full point group: C1

    Geometry (in Angstrom), charge = 0, multiplicity = 1:

    C           -0.188700824601    -1.162109258090     0.100564264724
    O           -1.051310350837    -0.985199244006    -0.721458311283
    H            0.384479158208    -0.574902093393     2.068065877315
    H           -1.385498589578    -0.691596139516     1.808582442563
    H            1.112151948767     2.550659412976    -1.491480860232
    C            1.223327051843     1.571550389552    -1.013384109603
    H            1.021673799801     0.789022483378    -1.756781666492
    H            2.253614636177     1.471745948118    -0.658445864238
    O            0.378332584832     1.439382263515     0.123926900496
    H           -0.534970351868     1.426729181917    -0.193829602536
    C           -0.415859298100    -1.136309188590     1.582309902009
    H           -0.393645454834    -2.164703990951     1.957984041637
    H            0.855288547335    -1.360475482757    -0.222340676674

gradient() will perform analytic gradient computation.

*** tstart() called on localhost.localdomain
*** at Mon May 13 09:38:46 2019

   => Loading Basis Set <=

    Name: 6-311++G(D,P)
    Role: ORBITAL
    Keyword: BASIS
    atoms 1, 6, 11            entry C          line   119 file /root/psi4conda/share/psi4/basis/6-311ppg_d_p_.gbs 
    atoms 2, 9                entry O          line   161 file /root/psi4conda/share/psi4/basis/6-311ppg_d_p_.gbs 
    atoms 3-5, 7-8, 10, 12-13 entry H          line    42 file /root/psi4conda/share/psi4/basis/6-311ppg_d_p_.gbs 


         ---------------------------------------------------------
                                   SCF
            by Justin Turney, Rob Parrish, Andy Simmonett
                             and Daniel Smith
                              RKS Reference
                       32 Threads,    500 MiB Core
         ---------------------------------------------------------

  ==> Geometry <==

    Molecular point group: c1
    Full point group: C1

    Geometry (in Angstrom), charge = 0, multiplicity = 1:

       Center              X                  Y                   Z               Mass       
    ------------   -----------------  -----------------  -----------------  -----------------
         C           -0.188700824601    -1.162109258090     0.100564264724    12.000000000000
         O           -1.051310350837    -0.985199244006    -0.721458311283    15.994914619560
         H            0.384479158208    -0.574902093393     2.068065877315     1.007825032070
         H           -1.385498589578    -0.691596139516     1.808582442563     1.007825032070
         H            1.112151948767     2.550659412976    -1.491480860232     1.007825032070
         C            1.223327051843     1.571550389552    -1.013384109603    12.000000000000
         H            1.021673799801     0.789022483378    -1.756781666492     1.007825032070
         H            2.253614636177     1.471745948118    -0.658445864238     1.007825032070
         O            0.378332584832     1.439382263515     0.123926900496    15.994914619560
         H           -0.534970351868     1.426729181917    -0.193829602536     1.007825032070
         C           -0.415859298100    -1.136309188590     1.582309902009    12.000000000000
         H           -0.393645454834    -2.164703990951     1.957984041637     1.007825032070
         H            0.855288547335    -1.360475482757    -0.222340676674     1.007825032070

  Running in c1 symmetry.

  Rotational constants: A =      0.25243  B =      0.08569  C =      0.07230 [cm^-1]
  Rotational constants: A =   7567.76360  B =   2568.85073  C =   2167.42542 [MHz]
  Nuclear repulsion =  180.165497440300214

  Charge       = 0
  Multiplicity = 1
  Electrons    = 42
  Nalpha       = 21
  Nbeta        = 21

  ==> Algorithm <==

  SCF Algorithm Type is DF.
  DIIS enabled.
  MOM disabled.
  Fractional occupation disabled.
  Guess Type is READ.
  Energy threshold   = 1.00e-08
  Density threshold  = 1.00e-08
  Integral threshold = 0.00e+00

  ==> Primary Basis <==

  Basis Set: 6-311++G(D,P)
    Blend: 6-311++G(D,P)
    Number of shells: 90
    Number of basis function: 166
    Number of Cartesian functions: 171
    Spherical Harmonics?: true
    Max angular momentum: 2

  ==> DFT Potential <==

   => Composite Functional: M06-2X <= 

    Hybrid M06-2X Meta-GGA XC Functional

    Y. Zhao and D. G. Truhlar,  Theor. Chem. Acc., 120, 215, 2008


    Deriv               =              1
    GGA                 =           TRUE
    Meta                =           TRUE

    Exchange Hybrid     =           TRUE
    MP2 Hybrid          =          FALSE

   => Exchange Functionals <=

    1.0000   XC_HYB_MGGA_X_M06_2X

   => Exact (HF) Exchange <=

    0.5400               HF 

   => Correlation Functionals <=

    1.0000   XC_MGGA_C_M06_2X

   => Molecular Quadrature <=

    Radial Scheme       =       TREUTLER
    Pruning Scheme      =           FLAT
    Nuclear Scheme      =       TREUTLER

    BS radius alpha     =              1
    Pruning alpha       =              1
    Radial Points       =             75
    Spherical Points    =            302
    Total Points        =         294450
    Total Blocks        =           2242
    Max Points          =            256
    Max Functions       =            166

   => Loading Basis Set <=

    Name: (6-311++G(D,P) AUX)
    Role: JKFIT
    Keyword: DF_BASIS_SCF
    atoms 1, 6, 11            entry C          line   162 file /root/psi4conda/share/psi4/basis/aug-cc-pvtz-jkfit.gbs 
    atoms 2, 9                entry O          line   286 file /root/psi4conda/share/psi4/basis/aug-cc-pvtz-jkfit.gbs 
    atoms 3-5, 7-8, 10, 12-13 entry H          line    70 file /root/psi4conda/share/psi4/basis/aug-cc-pvtz-jkfit.gbs 

  Reading orbitals from file 180, no projection.

  ==> Pre-Iterations <==

   -------------------------------------------------------
    Irrep   Nso     Nmo     Nalpha   Nbeta   Ndocc  Nsocc
   -------------------------------------------------------
     A        166     166       0       0       0       0
   -------------------------------------------------------
    Total     166     166      21      21      21       0
   -------------------------------------------------------

  ==> Integral Setup <==

  DFHelper Memory: AOs need 0.234 [GiB]; user supplied 0.366 [GiB]. Using in-core AOs.

  ==> MemDFJK: Density-Fitted J/K Matrices <==

    J tasked:                   Yes
    K tasked:                   Yes
    wK tasked:                   No
    OpenMP threads:              32
    Memory (MB):                375
    Algorithm:                 Core
    Schwarz Cutoff:           1E-12
    Mask sparsity (%):       3.7814
    Fitting Condition:        1E-12

   => Auxiliary Basis Set <=

  Basis Set: (6-311++G(D,P) AUX)
    Blend: AUG-CC-PVTZ-JKFIT
    Number of shells: 262
    Number of basis function: 888
    Number of Cartesian functions: 1095
    Spherical Harmonics?: true
    Max angular momentum: 4

  Minimum eigenvalue in the overlap matrix is 6.7386070703E-05.
  Using Symmetric Orthogonalization.

  SCF Guess: Orbitals guess was supplied from a previous computation.

  ==> Iterations <==

                           Total Energy        Delta E     RMS |[F,P]|

   @DF-RKS iter   0:  -269.53416038369971   -2.69534e+02   2.47334e-03 
   @DF-RKS iter   1:  -269.51644372905639    1.77167e-02   3.10407e-04 
   @DF-RKS iter   2:  -269.51650670604045   -6.29770e-05   2.44585e-04 DIIS
   @DF-RKS iter   3:  -269.51652601738164   -1.93113e-05   1.34162e-04 DIIS
   @DF-RKS iter   4:  -269.51653216489672   -6.14752e-06   2.47331e-05 DIIS
   @DF-RKS iter   5:  -269.51653266138374   -4.96487e-07   9.85036e-06 DIIS
   @DF-RKS iter   6:  -269.51653273316191   -7.17782e-08   3.96126e-06 DIIS
   @DF-RKS iter   7:  -269.51653275393522   -2.07733e-08   2.08360e-06 DIIS
   @DF-RKS iter   8:  -269.51653276057931   -6.64409e-09   5.19529e-07 DIIS
   @DF-RKS iter   9:  -269.51653276110727   -5.27962e-10   1.68299e-07 DIIS
   @DF-RKS iter  10:  -269.51653276114655   -3.92788e-11   6.59938e-08 DIIS
   @DF-RKS iter  11:  -269.51653276114934   -2.78533e-12   1.39945e-08 DIIS
   @DF-RKS iter  12:  -269.51653276114928    5.68434e-14   1.92673e-09 DIIS

  ==> Post-Iterations <==

    Orbital Energies [Eh]
    ---------------------

    Doubly Occupied:                                                      

       1A    -19.628586     2A    -19.623724     3A    -10.634668  
       4A    -10.583310     5A    -10.540553     6A     -1.178379  
       7A     -1.148044     8A     -0.846777     9A     -0.780140  
      10A     -0.665558    11A     -0.590937    12A     -0.560334  
      13A     -0.532248    14A     -0.515133    15A     -0.509733  
      16A     -0.498045    17A     -0.460846    18A     -0.434141  
      19A     -0.415823    20A     -0.359164    21A     -0.331373  

    Virtual:                                                              

      22A     -0.002926    23A      0.010097    24A      0.012866  
      25A      0.018361    26A      0.028144    27A      0.037243  
      28A      0.042992    29A      0.051407    30A      0.063121  
      31A      0.071878    32A      0.087243    33A      0.092372  
      34A      0.101620    35A      0.109989    36A      0.123956  
      37A      0.127072    38A      0.139150    39A      0.141100  
      40A      0.146643    41A      0.151461    42A      0.170223  
      43A      0.202480    44A      0.212918    45A      0.214157  
      46A      0.218071    47A      0.222037    48A      0.246348  
      49A      0.254475    50A      0.261017    51A      0.277358  
      52A      0.292386    53A      0.299756    54A      0.320517  
      55A      0.338492    56A      0.344103    57A      0.348645  
      58A      0.355059    59A      0.364366    60A      0.403342  
      61A      0.438296    62A      0.467083    63A      0.479505  
      64A      0.491451    65A      0.543628    66A      0.580835  
      67A      0.588686    68A      0.608683    69A      0.629831  
      70A      0.669649    71A      0.690649    72A      0.694636  
      73A      0.698647    74A      0.707293    75A      0.721461  
      76A      0.744780    77A      0.766402    78A      0.770682  
      79A      0.902744    80A      0.923862    81A      0.969154  
      82A      1.027186    83A      1.046257    84A      1.081179  
      85A      1.124354    86A      1.156590    87A      1.187966  
      88A      1.232906    89A      1.255447    90A      1.267606  
      91A      1.338125    92A      1.372047    93A      1.460335  
      94A      1.470268    95A      1.494487    96A      1.496867  
      97A      1.512739    98A      1.540665    99A      1.560293  
     100A      1.585653   101A      1.595441   102A      1.609537  
     103A      1.636142   104A      1.652531   105A      1.684833  
     106A      1.729797   107A      1.745356   108A      1.780665  
     109A      1.805948   110A      1.831191   111A      1.895836  
     112A      1.957369   113A      1.965202   114A      2.047335  
     115A      2.081036   116A      2.119473   117A      2.165641  
     118A      2.178540   119A      2.251305   120A      2.269427  
     121A      2.356600   122A      2.456094   123A      2.474804  
     124A      2.496720   125A      2.530755   126A      2.542614  
     127A      2.544079   128A      2.558688   129A      2.565732  
     130A      2.607856   131A      2.618597   132A      2.692625  
     133A      2.725984   134A      2.754591   135A      2.877164  
     136A      2.918268   137A      2.942963   138A      2.979395  
     139A      2.995343   140A      3.050077   141A      3.159203  
     142A      3.209905   143A      3.261525   144A      3.342989  
     145A      3.418724   146A      3.554052   147A      3.556510  
     148A      3.790576   149A      3.838586   150A      3.843471  
     151A      3.891444   152A      3.941252   153A      3.956359  
     154A      4.087245   155A      4.201309   156A      5.159567  
     157A      5.233598   158A      5.269011   159A      5.500155  
     160A      5.724474   161A      5.817624   162A     23.952814  
     163A     23.992547   164A     24.041670   165A     50.008455  
     166A     50.080288  

    Final Occupation by Irrep:
              A 
    DOCC [    21 ]

  Energy converged.

  @DF-RKS Final Energy:  -269.51653276114928

   => Energetics <=

    Nuclear Repulsion Energy =            180.1654974403002143
    One-Electron Energy =                -723.2644985420344028
    Two-Electron Energy =                 291.0934161747001099
    DFT Exchange-Correlation Energy =     -17.5109478341151998
    Empirical Dispersion Energy =           0.0000000000000000
    VV10 Nonlocal Energy =                  0.0000000000000000
    Total Energy =                       -269.5165327611492785



Properties will be evaluated at   0.000000,   0.000000,   0.000000 [a0]

Properties computed using the SCF density matrix

  Nuclear Dipole Moment: [e a0]
     X:     3.1027      Y:     1.3582      Z:     1.4144

  Electronic Dipole Moment: [e a0]
     X:    -2.5535      Y:    -1.3715      Z:    -1.1834

  Dipole Moment: [e a0]
     X:     0.5492      Y:    -0.0133      Z:     0.2310     Total:     0.5959

  Dipole Moment: [D]
     X:     1.3959      Y:    -0.0338      Z:     0.5871     Total:     1.5147


*** tstop() called on localhost.localdomain at Mon May 13 09:38:53 2019
Module time:
	user time   =     182.86 seconds =       3.05 minutes
	system time =       3.02 seconds =       0.05 minutes
	total time  =          7 seconds =       0.12 minutes
Total time:
	user time   =     729.87 seconds =      12.16 minutes
	system time =      20.29 seconds =       0.34 minutes
	total time  =         29 seconds =       0.48 minutes

*** tstart() called on localhost.localdomain
*** at Mon May 13 09:38:53 2019


         ------------------------------------------------------------
                                   SCF GRAD                          
                          Rob Parrish, Justin Turney,                
                       Andy Simmonett, and Alex Sokolov              
         ------------------------------------------------------------

  ==> Geometry <==

    Molecular point group: c1
    Full point group: C1

    Geometry (in Angstrom), charge = 0, multiplicity = 1:

       Center              X                  Y                   Z               Mass       
    ------------   -----------------  -----------------  -----------------  -----------------
         C           -0.188700824601    -1.162109258090     0.100564264724    12.000000000000
         O           -1.051310350837    -0.985199244006    -0.721458311283    15.994914619560
         H            0.384479158208    -0.574902093393     2.068065877315     1.007825032070
         H           -1.385498589578    -0.691596139516     1.808582442563     1.007825032070
         H            1.112151948767     2.550659412976    -1.491480860232     1.007825032070
         C            1.223327051843     1.571550389552    -1.013384109603    12.000000000000
         H            1.021673799801     0.789022483378    -1.756781666492     1.007825032070
         H            2.253614636177     1.471745948118    -0.658445864238     1.007825032070
         O            0.378332584832     1.439382263515     0.123926900496    15.994914619560
         H           -0.534970351868     1.426729181917    -0.193829602536     1.007825032070
         C           -0.415859298100    -1.136309188590     1.582309902009    12.000000000000
         H           -0.393645454834    -2.164703990951     1.957984041637     1.007825032070
         H            0.855288547335    -1.360475482757    -0.222340676674     1.007825032070

  Nuclear repulsion =  180.165497440300186

  ==> Basis Set <==

  Basis Set: 6-311++G(D,P)
    Blend: 6-311++G(D,P)
    Number of shells: 90
    Number of basis function: 166
    Number of Cartesian functions: 171
    Spherical Harmonics?: true
    Max angular momentum: 2

  ==> DFJKGrad: Density-Fitted SCF Gradients <==

    Gradient:                    1
    J tasked:                  Yes
    K tasked:                  Yes
    wK tasked:                  No
    OpenMP threads:             32
    Integrals threads:          32
    Memory (MB):               375
    Schwarz Cutoff:          0E+00
    Fitting Condition:       1E-12

   => Auxiliary Basis Set <=

  Basis Set: (6-311++G(D,P) AUX)
    Blend: AUG-CC-PVTZ-JKFIT
    Number of shells: 262
    Number of basis function: 888
    Number of Cartesian functions: 1095
    Spherical Harmonics?: true
    Max angular momentum: 4

  ==> DFT Potential <==

   => Composite Functional: M06-2X <= 

    Hybrid M06-2X Meta-GGA XC Functional

    Y. Zhao and D. G. Truhlar,  Theor. Chem. Acc., 120, 215, 2008


    Deriv               =              1
    GGA                 =           TRUE
    Meta                =           TRUE

    Exchange Hybrid     =           TRUE
    MP2 Hybrid          =          FALSE

   => Exchange Functionals <=

    1.0000   XC_HYB_MGGA_X_M06_2X

   => Exact (HF) Exchange <=

    0.5400               HF 

   => Correlation Functionals <=

    1.0000   XC_MGGA_C_M06_2X

   => Molecular Quadrature <=

    Radial Scheme       =       TREUTLER
    Pruning Scheme      =           FLAT
    Nuclear Scheme      =       TREUTLER

    BS radius alpha     =              1
    Pruning alpha       =              1
    Radial Points       =             75
    Spherical Points    =            302
[...]
    ------------   -----------------  -----------------  -----------------  -----------------
         C           -0.219993264371    -1.187271518631     0.109434818000    12.000000000000
         O           -1.027167200777    -0.942524939525    -0.749553468223    15.994914619560
         H            0.156461448716    -0.511696989311     2.079702362262     1.007825032070
         H           -1.557735802534    -0.928735135233     1.759214875898     1.007825032070
         H            1.010850663307     2.492411731940    -1.585906267880     1.007825032070
         C            1.196871045378     1.553194932012    -1.056620272238    12.000000000000
         H            0.918060106051     0.716345306706    -1.705236936311     1.007825032070
         H            2.260277788086     1.490112308567    -0.828780344705     1.007825032070
         O            0.505121246394     1.502764129763     0.180832573662    15.994914619560
         H           -0.437346124407     1.489841204064    -0.007656322856     1.007825032070
         C           -0.520550037497    -1.206856721791     1.577547065874    12.000000000000
         H           -0.327079450169    -2.207475178361     1.974091164677     1.007825032070
         H            0.828343240836    -1.419356915356    -0.165022942350     1.007825032070

  Nuclear repulsion =  178.944252487776566

  ==> Basis Set <==

  Basis Set: 6-311++G(D,P)
    Blend: 6-311++G(D,P)
    Number of shells: 90
    Number of basis function: 166
    Number of Cartesian functions: 171
    Spherical Harmonics?: true
    Max angular momentum: 2

  ==> DFJKGrad: Density-Fitted SCF Gradients <==

    Gradient:                    1
    J tasked:                  Yes
    K tasked:                  Yes
    wK tasked:                  No
    OpenMP threads:             32
    Integrals threads:          32
    Memory (MB):               375
    Schwarz Cutoff:          0E+00
    Fitting Condition:       1E-12

   => Auxiliary Basis Set <=

  Basis Set: (6-311++G(D,P) AUX)
    Blend: AUG-CC-PVTZ-JKFIT
    Number of shells: 262
    Number of basis function: 888
    Number of Cartesian functions: 1095
    Spherical Harmonics?: true
    Max angular momentum: 4

  ==> DFT Potential <==

   => Composite Functional: M06-2X <= 

    Hybrid M06-2X Meta-GGA XC Functional

    Y. Zhao and D. G. Truhlar,  Theor. Chem. Acc., 120, 215, 2008


    Deriv               =              1
    GGA                 =           TRUE
    Meta                =           TRUE

    Exchange Hybrid     =           TRUE
    MP2 Hybrid          =          FALSE

   => Exchange Functionals <=

    1.0000   XC_HYB_MGGA_X_M06_2X

   => Exact (HF) Exchange <=

    0.5400               HF 

   => Correlation Functionals <=

    1.0000   XC_MGGA_C_M06_2X

   => Molecular Quadrature <=

    Radial Scheme       =       TREUTLER
    Pruning Scheme      =           FLAT
    Nuclear Scheme      =       TREUTLER

    BS radius alpha     =              1
    Pruning alpha       =              1
    Radial Points       =             75
    Spherical Points    =            302
    Total Points        =         294450
    Total Blocks        =           2240
    Max Points          =            256
    Max Functions       =            166


  -Total Gradient:
     Atom            X                  Y                   Z
    ------   -----------------  -----------------  -----------------
       1        0.000009019215     0.000098425786     0.000044803184
       2       -0.000061735831    -0.000206234317    -0.000070595559
       3        0.000046659500    -0.000090228629     0.000018488136
       4        0.000018942127     0.000066368271    -0.000008701715
       5        0.000002188628     0.000017307244     0.000024456947
       6        0.000011283772     0.000019140976     0.000013441045
       7        0.000009940717     0.000013189610     0.000010874310
       8        0.000003130874     0.000015193985     0.000035284385
       9       -0.000040212438     0.000006986800     0.000063151296
      10        0.000024193748    -0.000087865886     0.000037805710
      11        0.000032984539     0.000086211153    -0.000052071643
      12       -0.000108350791    -0.000019540046    -0.000033475548
      13        0.000046561581     0.000143280603     0.000014015733


*** tstop() called on localhost.localdomain at Mon May 13 09:40:34 2019
Module time:
	user time   =      82.71 seconds =       1.38 minutes
	system time =       4.29 seconds =       0.07 minutes
	total time  =          3 seconds =       0.05 minutes
Total time:
	user time   =    3219.12 seconds =      53.65 minutes
	system time =      90.62 seconds =       1.51 minutes
	total time  =        130 seconds =       2.17 minutes

			-----------------------------------------
			 OPTKING 2.0: for geometry optimizations 
			  - R.A. King,  Bethel University        
			-----------------------------------------

	Previous internal coordinate definitions found.
	---Fragment 1 Geometry and Gradient---
	 C          -0.4157270207       -2.2436180156        0.2068018354
	 O          -1.9410647022       -1.7811140091       -1.4164507769
	 H           0.2956692884       -0.9669671728        3.9300679026
	 H          -2.9436940542       -1.7550550556        3.3244343243
	 H           1.9102309149        4.7099755838       -2.9969285187
	 C           2.2617584921        2.9351130525       -1.9967229410
	 H           1.7348821740        1.3536964463       -3.2224308013
	 H           4.2713060037        2.8159041704       -1.5661678758
	 O           0.9545408196        2.8398126476        0.3417240401
	 H          -0.8264644004        2.8153918572       -0.0144683534
	 C          -0.9836970093       -2.2806286858        2.9811319162
	 H          -0.6180905845       -4.1715235322        3.7304916626
	 H           1.5653418692       -2.6821958548       -0.3118481667
	             0.0000090192        0.0000984258        0.0000448032
	            -0.0000617358       -0.0002062343       -0.0000705956
	             0.0000466595       -0.0000902286        0.0000184881
	             0.0000189421        0.0000663683       -0.0000087017
	             0.0000021886        0.0000173072        0.0000244569
	             0.0000112838        0.0000191410        0.0000134410
	             0.0000099407        0.0000131896        0.0000108743
	             0.0000031309        0.0000151940        0.0000352844
	            -0.0000402124        0.0000069868        0.0000631513
	             0.0000241937       -0.0000878659        0.0000378057
	             0.0000329845        0.0000862112       -0.0000520716
	            -0.0001083508       -0.0000195400       -0.0000334755
	             0.0000465616        0.0001432806        0.0000140157

	---Fragment 1 Intrafragment Coordinates---
	 - Coordinate -           - BOHR/RAD -       - ANG/DEG -
	 R(1,2)           =         2.274976	       1.203865
	 R(1,11)          =         2.832114	       1.498690
	 R(1,13)          =         2.094274	       1.108242
	 R(2,10)          =         4.933128	       2.610499
	 R(3,11)          =         2.064695	       1.092589
	 R(4,11)          =         2.058075	       1.089086
	 R(5,6)           =         2.067394	       1.094018
	 R(6,7)           =         2.069018	       1.094877
	 R(6,8)           =         2.058609	       1.089369
	 R(6,9)           =         2.680715	       1.418573
	 R(9,10)          =         1.816439	       0.961218
	 R(11,12)         =         2.066565	       1.093579
	 B(1,2,10)        =         1.405196	      80.511783
	 B(1,11,3)        =         1.894039	     108.520433
	 B(1,11,4)        =         1.929495	     110.551929
	 B(1,11,12)       =         1.908891	     109.371419
	 B(2,1,11)        =         2.173851	     124.552467
	 B(2,1,13)        =         2.094524	     120.007392
	 B(2,10,9)        =         1.864804	     106.845427
	 B(3,11,4)        =         1.929398	     110.546378
	 B(3,11,12)       =         1.881664	     107.811398
	 B(4,11,12)       =         1.919480	     109.978116
	 B(5,6,7)         =         1.903155	     109.042723
	 B(5,6,8)         =         1.893236	     108.474444
	 B(5,6,9)         =         1.949412	     111.693077
	 B(6,9,10)        =         1.883410	     107.911419
	 B(7,6,8)         =         1.905218	     109.160939
	 B(7,6,9)         =         1.944884	     111.433629
	 B(8,6,9)         =         1.866604	     106.948536
	 B(11,1,13)       =         2.014811	     115.440139
	 D(1,2,10,9)      =         0.658149	      37.709133
	 D(2,1,11,3)      =        -2.159872	    -123.751540
	 D(2,1,11,4)      =        -0.041185	      -2.359720
	 D(2,1,11,12)     =         2.074824	     118.878680
	 D(2,10,9,6)      =         1.356429	      77.717638
	 D(3,11,1,13)     =         0.982007	      56.264873
	 D(4,11,1,13)     =         3.100694	     177.656693
	 D(5,6,9,10)      =         1.146821	      65.707987
	 D(7,6,9,10)      =        -0.986590	     -56.527444
	 D(8,6,9,10)      =        -3.067475	    -175.753396
	 D(10,2,1,11)     =         1.413294	      80.975772
	 D(10,2,1,13)     =        -1.728598	     -99.041344
	 D(12,11,1,13)    =        -1.066482	     -61.104907
	 R(1,6)           =         6.232472	       3.298082
	 R(9,11)          =         6.078006	       3.216342

	Current energy   :      -269.5173521856

	Energy change for the previous step:
		Projected    :        -0.0000065425
		Actual       :        -0.0000015846
	Energy ratio indicates iffy step: Trust radius decreased to 1.465e-03.


	Performing BFGS update.
	Previous computed or guess Hessian on step 1.
	Steps to be used in Hessian update: 12 11
	Taking RFO optimization step.
	Going to follow RFO solution 1.
	Using RFO vector 1.

	Determining step-restricting scale parameter for RS-RFO.
	Maximum step size allowed    0.00146

	 Iter      |step|        alpha        rfo_root  
	------------------------------------------------
	    0     0.16590       1.00000           1
	    1     0.10222      37.26479           1
	    2     0.06112     164.75139           1
	    3     0.03612     572.05340           1
	    4     0.02133    1804.95829           1
	    5     0.01268    5388.08673           1
	    6     0.00766   15323.39990           1
	    7     0.00475   40906.63055           1
	    8     0.00309   98969.65291           1
	    9     0.00216  205137.87466           1
	   10     0.00169  339223.81091           1
	   11     0.00150  429200.35376           1
	   12     0.00147  449903.61249           1
	------------------------------------------------
	Norm of target step-size    0.00147
	Projected energy change by RFO approximation:        -0.0000002009

	Back-transformation to cartesian coordinates...
	Could not converge backtransformation.
	Using first guess instead.

	--- Internal Coordinate Step in ANG or DEG, aJ/ANG or AJ/DEG ---
	 ---------------------------------------------------------------------------
	   Coordinate                Previous        Force       Change         New 
	   ----------                --------       ------       ------       ------
	    1 R(1,2)          =      1.203865    -0.000072    -0.000005     1.203860
	    2 R(1,11)         =      1.498690     0.000050     0.000005     1.498695
	    3 R(1,13)         =      1.108242    -0.000031    -0.000002     1.108240
	    4 R(2,10)         =      2.610499    -0.000069    -0.000026     2.610473
	    5 R(3,11)         =      1.092589     0.000087     0.000014     1.092604
	    6 R(4,11)         =      1.089086     0.000064     0.000008     1.089095
	    7 R(5,6)          =      1.094018    -0.000010     0.000001     1.094019
	    8 R(6,7)          =      1.094877    -0.000050    -0.000004     1.094873
	    9 R(6,8)          =      1.089369    -0.000028    -0.000002     1.089367
	   10 R(6,9)          =      1.418573    -0.000037    -0.000009     1.418564
	   11 R(9,10)         =      0.961218    -0.000046    -0.000000     0.961218
	   12 R(11,12)        =      1.093579     0.000122     0.000012     1.093591
	   13 B(1,2,10)       =     80.511783     0.000008     0.027278    80.539061
	   14 B(1,11,3)       =    108.520433    -0.000001    -0.003491   108.516941
	   15 B(1,11,4)       =    110.551929    -0.000000    -0.000283   110.551646
	   16 B(1,11,12)      =    109.371419     0.000001     0.002903   109.374323
	   17 B(2,1,11)       =    124.552467     0.000000     0.000105   124.552572
	   18 B(2,1,13)       =    120.007392     0.000000     0.000094   120.007486
	   19 B(2,10,9)       =    106.845427    -0.000008    -0.025227   106.820200
	   20 B(3,11,4)       =    110.546378    -0.000000    -0.001973   110.544405
	   21 B(3,11,12)      =    107.811398     0.000000     0.000562   107.811959
	   22 B(4,11,12)      =    109.978116     0.000001     0.002283   109.980399
	   23 B(5,6,7)        =    109.042723     0.000000    -0.000114   109.042610
	   24 B(5,6,8)        =    108.474444    -0.000000    -0.000657   108.473787
	   25 B(5,6,9)        =    111.693077     0.000000     0.000493   111.693569
	   26 B(6,9,10)       =    107.911419     0.000000     0.000915   107.912334
	   27 B(7,6,8)        =    109.160939    -0.000000     0.000032   109.160971
	   28 B(7,6,9)        =    111.433629    -0.000000    -0.000131   111.433499
	   29 B(8,6,9)        =    106.948536     0.000000     0.000358   106.948894
	   30 B(11,1,13)      =    115.440139    -0.000000    -0.000198   115.439941
	   31 D(1,2,10,9)     =     37.709133    -0.000001    -0.011048    37.698084
	   32 D(2,1,11,3)     =   -123.751540     0.000002     0.031172  -123.720368
	   33 D(2,1,11,4)     =     -2.359720     0.000002     0.026311    -2.333409
	   34 D(2,1,11,12)    =    118.878680     0.000002     0.030864   118.909544
	   35 D(2,10,9,6)     =     77.717638     0.000001     0.006839    77.724477
	   36 D(3,11,1,13)    =     56.264873     0.000002     0.026312    56.291185
	   37 D(4,11,1,13)    =    177.656693     0.000001     0.021451   177.678144
	   38 D(5,6,9,10)     =     65.707987    -0.000000    -0.001879    65.706108
	   39 D(7,6,9,10)     =    -56.527444    -0.000000    -0.001991   -56.529435
	   40 D(8,6,9,10)     =   -175.753396    -0.000000    -0.002177  -175.755573
	   41 D(10,2,1,11)    =     80.975772    -0.000000    -0.004040    80.971732
	   42 D(10,2,1,13)    =    -99.041344     0.000000     0.001028   -99.040316
	   43 D(12,11,1,13)   =    -61.104907     0.000002     0.026003   -61.078903
	   44 R(1,6)          =      3.298082    -0.000143    -0.000036     3.298046
	   45 R(9,11)         =      3.216342     0.000939     0.000288     3.216630
	 ---------------------------------------------------------------------------
	Successfully symmetrized geometry.

  ==> Convergence Check <==

  Measures of convergence in internal coordinates in au.
  Criteria marked as inactive (o), active & met (*), and active & unmet ( ).
  ---------------------------------------------------------------------------------------------
   Step     Total Energy     Delta E     MAX Force     RMS Force      MAX Disp      RMS Disp   
  ---------------------------------------------------------------------------------------------
    Convergence Criteria    1.00e-06 *    3.00e-04 *             o    1.20e-03 *             o
  ---------------------------------------------------------------------------------------------
     13    -269.51735219   -1.58e-06      1.14e-04 *    4.65e-05 o    5.44e-04 *    2.19e-04 o  ~
  ---------------------------------------------------------------------------------------------


  **** Optimization is complete! (in 13 steps) ****

  ==> Optimization Summary <==

  Measures of convergence in internal coordinates in au.
  --------------------------------------------------------------------------------------------------------------- ~
   Step         Total Energy             Delta E       MAX Force       RMS Force        MAX Disp        RMS Disp  ~
  --------------------------------------------------------------------------------------------------------------- ~
      1    -269.515232025021   -269.515232025021      0.00282905      0.00103494      0.26844246      0.05979952  ~
      2    -269.515473902302     -0.000241877280      0.01316141      0.00393141      0.05296803      0.01859291  ~
      3    -269.516532761149     -0.001058858848      0.00478330      0.00123655      0.05881332      0.01867444  ~
      4    -269.516849952457     -0.000317191307      0.00110019      0.00038998      0.06109809      0.01872704  ~
      5    -269.517022389011     -0.000172436555      0.00101615      0.00027640      0.05586039      0.01869990  ~
      6    -269.517155667949     -0.000133278938      0.00043133      0.00019978      0.04713584      0.01866471  ~
      7    -269.517247672317     -0.000092004368      0.00053905      0.00021950      0.01410812      0.00465951  ~
      8    -269.517267968495     -0.000020296178      0.00030247      0.00011092      0.03793987      0.01397937  ~
      9    -269.517311508560     -0.000043540065      0.00027956      0.00010674      0.03820668      0.01397692  ~
     10    -269.517341824715     -0.000030316155      0.00032768      0.00010137      0.01014234      0.00349430  ~
     11    -269.517348892269     -0.000007067554      0.00017682      0.00005856      0.00243508      0.00087357  ~
     12    -269.517350601012     -0.000001708743      0.00014296      0.00005251      0.00230207      0.00087359  ~
     13    -269.517352185603     -0.000001584591      0.00011394      0.00004649      0.00054406      0.00021855  ~
  --------------------------------------------------------------------------------------------------------------- ~

	Writing optimization data to binary file.
	Final energy is   -269.5173521856030
	Final (previous) structure:
	Cartesian Geometry (in Angstrom)
	    C    -0.2199932644  -1.1872715186   0.1094348180
	    O    -1.0271672008  -0.9425249395  -0.7495534682
	    H     0.1564614487  -0.5116969893   2.0797023623
	    H    -1.5577358025  -0.9287351352   1.7592148759
	    H     1.0108506633   2.4924117319  -1.5859062679
	    C     1.1968710454   1.5531949320  -1.0566202722
	    H     0.9180601061   0.7163453067  -1.7052369363
	    H     2.2602777881   1.4901123086  -0.8287803447
	    O     0.5051212464   1.5027641298   0.1808325737
	    H    -0.4373461244   1.4898412041  -0.0076563229
	    C    -0.5205500375  -1.2068567218   1.5775470659
	    H    -0.3270794502  -2.2074751784   1.9740911647
	    H     0.8283432408  -1.4193569154  -0.1650229423
	Saving final (previous) structure.
	Removing binary optimization data file.
			--------------------------
			 OPTKING Finished Execution 
			--------------------------

    Final optimized geometry and variables:
    Molecular point group: c1
    Full point group: C1

    Geometry (in Angstrom), charge = 0, multiplicity = 1:

    C           -0.219993264371    -1.187271518631     0.109434818000
    O           -1.027167200777    -0.942524939525    -0.749553468223
    H            0.156461448716    -0.511696989311     2.079702362262
    H           -1.557735802534    -0.928735135233     1.759214875898
    H            1.010850663307     2.492411731940    -1.585906267880
    C            1.196871045378     1.553194932012    -1.056620272238
    H            0.918060106051     0.716345306706    -1.705236936311
    H            2.260277788086     1.490112308567    -0.828780344705
    O            0.505121246394     1.502764129763     0.180832573662
    H           -0.437346124407     1.489841204064    -0.007656322856
    C           -0.520550037497    -1.206856721791     1.577547065874
    H           -0.327079450169    -2.207475178361     1.974091164677
    H            0.828343240836    -1.419356915356    -0.165022942350

	Removing binary optimization data file.
	Cleaning optimization helper files.

    Psi4 stopped on: Monday, 13 May 2019 09:40AM
    Psi4 wall time for execution: 0:02:10.40

*** Psi4 exiting successfully. Buy a developer a beer!
