
    -----------------------------------------------------------------------
          Psi4: An Open-Source Ab Initio Electronic Structure Package
                               Psi4 1.2.1 release

                         Git: Rev {HEAD} 406f4de 


    R. M. Parrish, L. A. Burns, D. G. A. Smith, A. C. Simmonett,
    A. E. DePrince III, E. G. Hohenstein, U. Bozkaya, A. Yu. Sokolov,
    R. Di Remigio, R. M. Richard, J. F. Gonthier, A. M. James,
    H. R. McAlexander, A. Kumar, M. Saitow, X. Wang, B. P. Pritchard,
    P. Verma, H. F. Schaefer III, K. Patkowski, R. A. King, E. F. Valeev,
    F. A. Evangelista, J. M. Turney, T. D. Crawford, and C. D. Sherrill,
    J. Chem. Theory Comput. 13(7) pp 3185--3197 (2017).
    (doi: 10.1021/acs.jctc.7b00174)


                         Additional Contributions by
    P. Kraus, H. Kruse, M. H. Lechner, M. C. Schieber, and R. A. Shaw

    -----------------------------------------------------------------------


    Psi4 started on: Tuesday, 22 January 2019 04:24PM

    Process ID: 40016
    Host:       localhost.localdomain
    PSIDATADIR: /root/psi4conda/share/psi4
    Memory:     500.0 MiB
    Threads:    1
    
  ==> Input File <==

--------------------------------------------------------------------------

molecule {
0 1
 C   -0.013640455524   -0.304855975907   -0.810379818598
 O   -1.076658993565   -0.439893960784   -1.481825450171
 F    1.062864289563   -0.023598561706    1.294372531015
 F   -1.097616516737    0.080821320964    1.276570700398
 H    0.992026311039    2.914407371958   -1.825047800286
 C    1.211964312257    1.872706905514   -1.617459730801
 H    1.398768059056    1.323234574780   -2.542582410924
 H    2.063852546695    1.797892286290   -0.943598543110
 O    0.085591558919    1.317072805176   -0.932426337620
 H   -0.729913783851    1.169050389932   -1.501740898641
 C   -0.051533518422   -0.505930890741    0.712794309826
 F   -0.104165444803   -1.814358371024    0.969731468779
 H    0.968312521123   -0.646571602118   -1.195237418418
}

set{
  basis 6-311++G(d,p)
  freeze_core True
  cubeprop_tasks ['ESP']
}

set_num_threads(32)
E, wfn = energy('m06-2x', return_wfn=True)
cubeprop(wfn)
--------------------------------------------------------------------------
  Threads set to 32 by Python driver.

*** tstart() called on localhost.localdomain
*** at Tue Jan 22 16:24:01 2019

   => Loading Basis Set <=

    Name: 6-311++G(D,P)
    Role: ORBITAL
    Keyword: BASIS
    atoms 1, 6, 11       entry C          line   119 file /root/psi4conda/share/psi4/basis/6-311ppg_d_p_.gbs 
    atoms 2, 9           entry O          line   161 file /root/psi4conda/share/psi4/basis/6-311ppg_d_p_.gbs 
    atoms 3-4, 12        entry F          line   182 file /root/psi4conda/share/psi4/basis/6-311ppg_d_p_.gbs 
    atoms 5, 7-8, 10, 13 entry H          line    42 file /root/psi4conda/share/psi4/basis/6-311ppg_d_p_.gbs 


         ---------------------------------------------------------
                                   SCF
            by Justin Turney, Rob Parrish, Andy Simmonett
                             and Daniel Smith
                              RKS Reference
                       32 Threads,    500 MiB Core
         ---------------------------------------------------------

  ==> Geometry <==

    Molecular point group: c1
    Full point group: C1

    Geometry (in Angstrom), charge = 0, multiplicity = 1:

       Center              X                  Y                   Z               Mass       
    ------------   -----------------  -----------------  -----------------  -----------------
         C           -0.013640455524    -0.304855975907    -0.810379818598    12.000000000000
         O           -1.076658993565    -0.439893960784    -1.481825450171    15.994914619560
         F            1.062864289563    -0.023598561706     1.294372531015    18.998403224000
         F           -1.097616516737     0.080821320964     1.276570700398    18.998403224000
         H            0.992026311039     2.914407371958    -1.825047800286     1.007825032070
         C            1.211964312257     1.872706905514    -1.617459730801    12.000000000000
         H            1.398768059056     1.323234574780    -2.542582410924     1.007825032070
         H            2.063852546695     1.797892286290    -0.943598543110     1.007825032070
         O            0.085591558919     1.317072805176    -0.932426337620    15.994914619560
         H           -0.729913783851     1.169050389932    -1.501740898641     1.007825032070
         C           -0.051533518422    -0.505930890741     0.712794309826    12.000000000000
         F           -0.104165444803    -1.814358371024     0.969731468779    18.998403224000
         H            0.968312521123    -0.646571602118    -1.195237418418     1.007825032070

  Running in c1 symmetry.

  Rotational constants: A =      0.10371  B =      0.05193  C =      0.04419 [cm^-1]
  Rotational constants: A =   3109.29158  B =   1556.86370  C =   1324.74967 [MHz]
  Nuclear repulsion =  444.710661890539427

  Charge       = 0
  Multiplicity = 1
  Electrons    = 66
  Nalpha       = 33
  Nbeta        = 33

  ==> Algorithm <==

  SCF Algorithm Type is DF.
  DIIS enabled.
  MOM disabled.
  Fractional occupation disabled.
  Guess Type is SAD.
  Energy threshold   = 1.00e-06
  Density threshold  = 1.00e-06
  Integral threshold = 0.00e+00

  ==> Primary Basis <==

  Basis Set: 6-311++G(D,P)
    Blend: 6-311++G(D,P)
    Number of shells: 105
    Number of basis function: 211
    Number of Cartesian functions: 219
    Spherical Harmonics?: true
    Max angular momentum: 2

  ==> DFT Potential <==

   => Composite Functional: M06-2X <= 

    Hybrid M06-2X Meta-GGA XC Functional

    Y. Zhao and D. G. Truhlar,  Theor. Chem. Acc., 120, 215, 2008


    Deriv               =              1
    GGA                 =           TRUE
    Meta                =           TRUE

    Exchange Hybrid     =           TRUE
    MP2 Hybrid          =          FALSE

   => Exchange Functionals <=

    1.0000   XC_HYB_MGGA_X_M06_2X

   => Exact (HF) Exchange <=

    0.5400               HF 

   => Correlation Functionals <=

    1.0000   XC_MGGA_C_M06_2X

   => Molecular Quadrature <=

    Radial Scheme       =       TREUTLER
    Pruning Scheme      =           FLAT
    Nuclear Scheme      =       TREUTLER

    BS radius alpha     =              1
    Pruning alpha       =              1
    Radial Points       =             75
    Spherical Points    =            302
    Total Points        =         294450
    Total Blocks        =           2265
    Max Points          =            256
    Max Functions       =            197

   => Loading Basis Set <=

    Name: (6-311++G(D,P) AUX)
    Role: JKFIT
    Keyword: DF_BASIS_SCF
    atoms 1, 6, 11       entry C          line   162 file /root/psi4conda/share/psi4/basis/aug-cc-pvtz-jkfit.gbs 
    atoms 2, 9           entry O          line   286 file /root/psi4conda/share/psi4/basis/aug-cc-pvtz-jkfit.gbs 
    atoms 3-4, 12        entry F          line   348 file /root/psi4conda/share/psi4/basis/aug-cc-pvtz-jkfit.gbs 
    atoms 5, 7-8, 10, 13 entry H          line    70 file /root/psi4conda/share/psi4/basis/aug-cc-pvtz-jkfit.gbs 

  ==> Pre-Iterations <==

   -------------------------------------------------------
    Irrep   Nso     Nmo     Nalpha   Nbeta   Ndocc  Nsocc
   -------------------------------------------------------
     A        211     211       0       0       0       0
   -------------------------------------------------------
    Total     211     211      33      33      33       0
   -------------------------------------------------------

  ==> Integral Setup <==

  DFHelper Memory: AOs need 0.436 [GiB]; user supplied 0.366 [GiB]. Turning off in-core AOs.

  ==> MemDFJK: Density-Fitted J/K Matrices <==

    J tasked:                   Yes
    K tasked:                   Yes
    wK tasked:                   No
    OpenMP threads:              32
    Memory (MB):                375
    Algorithm:                 Disk
    Schwarz Cutoff:           1E-12
    Mask sparsity (%):       6.6306
    Fitting Condition:        1E-12

   => Auxiliary Basis Set <=

  Basis Set: (6-311++G(D,P) AUX)
    Blend: AUG-CC-PVTZ-JKFIT
    Number of shells: 310
    Number of basis function: 1062
    Number of Cartesian functions: 1323
    Spherical Harmonics?: true
    Max angular momentum: 4

  Minimum eigenvalue in the overlap matrix is 5.8366600889E-05.
  Using Symmetric Orthogonalization.

  SCF Guess: Superposition of Atomic Densities via on-the-fly atomic UHF.

  ==> Iterations <==

                           Total Energy        Delta E     RMS |[F,P]|

   @DF-RKS iter   0:  -569.02951581588638   -5.69030e+02   1.01471e-01 
   @DF-RKS iter   1:  -567.05152854128960    1.97799e+00   1.50788e-02 
   @DF-RKS iter   2:  -566.98222525070980    6.93033e-02   1.96007e-02 DIIS
   @DF-RKS iter   3:  -567.20052979531511   -2.18305e-01   2.68185e-03 DIIS
   @DF-RKS iter   4:  -567.20573711064424   -5.20732e-03   1.00376e-03 DIIS
   @DF-RKS iter   5:  -567.20669447527780   -9.57365e-04   3.30481e-04 DIIS
   @DF-RKS iter   6:  -567.20676166385033   -6.71886e-05   9.82889e-05 DIIS
   @DF-RKS iter   7:  -567.20677051039968   -8.84655e-06   2.22541e-05 DIIS
   @DF-RKS iter   8:  -567.20677122061920   -7.10220e-07   1.32614e-05 DIIS
   @DF-RKS iter   9:  -567.20677135835876   -1.37740e-07   2.33108e-06 DIIS
   @DF-RKS iter  10:  -567.20677136927645   -1.09177e-08   6.13549e-07 DIIS

  ==> Post-Iterations <==

    Orbital Energies [Eh]
    ---------------------

    Doubly Occupied:                                                      

       1A    -25.283977     2A    -25.280720     3A    -25.280702  
       4A    -19.733883     5A    -19.583818     6A    -10.798062  
       7A    -10.678640     8A    -10.640244     9A     -1.476323  
      10A     -1.382971    11A     -1.381534    12A     -1.274166  
      13A     -1.131777    14A     -0.871522    15A     -0.852472  
      16A     -0.766643    17A     -0.702628    18A     -0.701168  
      19A     -0.671901    20A     -0.667283    21A     -0.609136  
      22A     -0.582695    23A     -0.578673    24A     -0.574193  
      25A     -0.543428    26A     -0.536328    27A     -0.517952  
      28A     -0.517348    29A     -0.498525    30A     -0.491500  
      31A     -0.471823    32A     -0.361357    33A     -0.331001  

    Virtual:                                                              

      34A     -0.016742    35A      0.004982    36A      0.014960  
      37A      0.018738    38A      0.038041    39A      0.046108  
      40A      0.055369    41A      0.062087    42A      0.067190  
      43A      0.083146    44A      0.094109    45A      0.101488  
      46A      0.107037    47A      0.111763    48A      0.121312  
      49A      0.125251    50A      0.135489    51A      0.149388  
      52A      0.171563    53A      0.181917    54A      0.192796  
      55A      0.200745    56A      0.218482    57A      0.225352  
      58A      0.236281    59A      0.248807    60A      0.256016  
      61A      0.270255    62A      0.278794    63A      0.279709  
      64A      0.296950    65A      0.304682    66A      0.306480  
      67A      0.313429    68A      0.325459    69A      0.329183  
      70A      0.355632    71A      0.360775    72A      0.363272  
      73A      0.380326    74A      0.381219    75A      0.387360  
      76A      0.402750    77A      0.408585    78A      0.424272  
      79A      0.435466    80A      0.447566    81A      0.460446  
      82A      0.467450    83A      0.507976    84A      0.530622  
      85A      0.560092    86A      0.592483    87A      0.614081  
      88A      0.635550    89A      0.641167    90A      0.663292  
      91A      0.674119    92A      0.690883    93A      0.709376  
      94A      0.742175    95A      0.755476    96A      0.787074  
      97A      0.924643    98A      0.998771    99A      1.020700  
     100A      1.036123   101A      1.053649   102A      1.091260  
     103A      1.114224   104A      1.171109   105A      1.221515  
     106A      1.256238   107A      1.274411   108A      1.302645  
     109A      1.366107   110A      1.386172   111A      1.406213  
     112A      1.427497   113A      1.437439   114A      1.448069  
     115A      1.466177   116A      1.478858   117A      1.485824  
     118A      1.498793   119A      1.515398   120A      1.530444  
     121A      1.538653   122A      1.552054   123A      1.566666  
     124A      1.596768   125A      1.612329   126A      1.630677  
     127A      1.667029   128A      1.709501   129A      1.737227  
     130A      1.760460   131A      1.779761   132A      1.801523  
     133A      1.867204   134A      1.917953   135A      1.931684  
     136A      1.948892   137A      1.972309   138A      2.010434  
     139A      2.022135   140A      2.064310   141A      2.102369  
     142A      2.131403   143A      2.221378   144A      2.246044  
     145A      2.317922   146A      2.434729   147A      2.470337  
     148A      2.505011   149A      2.527080   150A      2.570178  
     151A      2.583405   152A      2.689596   153A      2.762333  
     154A      2.785112   155A      2.917353   156A      2.945411  
     157A      2.949048   158A      3.000490   159A      3.023284  
     160A      3.061613   161A      3.097084   162A      3.188568  
     163A      3.234257   164A      3.344015   165A      3.447477  
     166A      3.494042   167A      3.672602   168A      3.732914  
     169A      3.781683   170A      3.801300   171A      3.824923  
     172A      3.839724   173A      3.846175   174A      3.862462  
     175A      3.870433   176A      3.873148   177A      3.935872  
     178A      3.958336   179A      4.007743   180A      4.037994  
     181A      4.060633   182A      4.107014   183A      4.231352  
     184A      4.294398   185A      4.311399   186A      4.686671  
     187A      4.988033   188A      5.011653   189A      5.190024  
     190A      5.258581   191A      5.305643   192A      5.418764  
     193A      5.659026   194A      5.809061   195A      6.441247  
     196A      6.463251   197A      6.483987   198A      6.508937  
     199A      6.517656   200A      6.542573   201A      6.592715  
     202A      6.883682   203A      6.912853   204A     23.601425  
     205A     23.876436   206A     23.949868   207A     49.956976  
     208A     50.136056   209A     66.887899   210A     66.892766  
     211A     66.947649  

    Final Occupation by Irrep:
              A 
    DOCC [    33 ]

  Energy converged.

  @DF-RKS Final Energy:  -567.20677136927645

   => Energetics <=

    Nuclear Repulsion Energy =            444.7106618905394271
    One-Electron Energy =               -1665.8057816811349312
    Two-Electron Energy =                 685.9276617553645110
    DFT Exchange-Correlation Energy =     -32.0393133340453318
    Empirical Dispersion Energy =           0.0000000000000000
    VV10 Nonlocal Energy =                  0.0000000000000000
    Total Energy =                       -567.2067713692764528



Properties will be evaluated at   0.000000,   0.000000,   0.000000 [a0]

Properties computed using the SCF density matrix

  Nuclear Dipole Moment: [e a0]
     X:     4.5259      Y:     7.8098      Z:   -10.8592

  Electronic Dipole Moment: [e a0]
     X:    -3.0787      Y:    -6.3169      Z:    10.0075

  Dipole Moment: [e a0]
     X:     1.4472      Y:     1.4928      Z:    -0.8517     Total:     2.2468

  Dipole Moment: [D]
     X:     3.6783      Y:     3.7943      Z:    -2.1647     Total:     5.7108


*** tstop() called on localhost.localdomain at Tue Jan 22 16:24:15 2019
Module time:
	user time   =     337.83 seconds =       5.63 minutes
	system time =      16.40 seconds =       0.27 minutes
	total time  =         14 seconds =       0.23 minutes
Total time:
	user time   =     337.83 seconds =       5.63 minutes
	system time =      16.40 seconds =       0.27 minutes
	total time  =         14 seconds =       0.23 minutes
  ==> One Electron Grid Properties (v2.0) <==

  ==> CubicScalarGrid <==

    Filepath     = .
    Total Points =           476268
    XYZ Blocking =               10
    X Points     =               71
    Y Points     =               86
    Z Points     =               78
    X Spacing    =        2.000E-01
    Y Spacing    =        2.000E-01
    Z Spacing    =        2.000E-01
    X Minimum    =       -6.087E+00
    Y Minimum    =       -7.461E+00
    Z Minimum    =       -8.879E+00
    X Maximum    =        7.913E+00
    Y Maximum    =        9.539E+00
    Z Maximum    =        6.521E+00

  Basis Set: 6-311++G(D,P)
    Blend: 6-311++G(D,P)
    Number of shells: 105
    Number of basis function: 211
    Number of Cartesian functions: 219
    Spherical Harmonics?: true
    Max angular momentum: 2


    Psi4 stopped on: Tuesday, 22 January 2019 04:24PM
    Psi4 wall time for execution: 0:00:21.45

*** Psi4 exiting successfully. Buy a developer a beer!
