
    -----------------------------------------------------------------------
          Psi4: An Open-Source Ab Initio Electronic Structure Package
                               Psi4 1.2.1 release

                         Git: Rev {HEAD} 406f4de 


    R. M. Parrish, L. A. Burns, D. G. A. Smith, A. C. Simmonett,
    A. E. DePrince III, E. G. Hohenstein, U. Bozkaya, A. Yu. Sokolov,
    R. Di Remigio, R. M. Richard, J. F. Gonthier, A. M. James,
    H. R. McAlexander, A. Kumar, M. Saitow, X. Wang, B. P. Pritchard,
    P. Verma, H. F. Schaefer III, K. Patkowski, R. A. King, E. F. Valeev,
    F. A. Evangelista, J. M. Turney, T. D. Crawford, and C. D. Sherrill,
    J. Chem. Theory Comput. 13(7) pp 3185--3197 (2017).
    (doi: 10.1021/acs.jctc.7b00174)


                         Additional Contributions by
    P. Kraus, H. Kruse, M. H. Lechner, M. C. Schieber, and R. A. Shaw

    -----------------------------------------------------------------------


    Psi4 started on: Wednesday, 20 March 2019 02:23PM

    Process ID: 7909
    Host:       localhost.localdomain
    PSIDATADIR: /root/psi4conda/share/psi4
    Memory:     500.0 MiB
    Threads:    1
    
  ==> Input File <==

--------------------------------------------------------------------------
molecule{
0 2 
C       0.373812       0.871847      -0.307479
H       0.058654       0.507392      -1.281982
H      -0.053210       1.817223       0.008737
C       1.550712       0.463313       0.247140
H       1.937838       0.940572       1.144717
C      -1.447991      -0.347048       0.523039
H      -1.013980      -1.341161       0.477254
H      -1.575035       0.073342       1.523186
N       2.238623      -0.706515      -0.107689
H       2.036287      -1.029095      -1.049008
H       3.241198      -0.657749       0.037803
O      -2.528854      -0.240759      -0.333964
H      -2.930472       0.632486      -0.211364
}

set{
   basis 6-311++G(d,p)
   freeze_core True
   opt_type ts
   reference uks
}


set_num_threads(32)
optimize('m06-2x')

--------------------------------------------------------------------------
  Threads set to 32 by Python driver.
gradient() will perform analytic gradient computation.

*** tstart() called on localhost.localdomain
*** at Wed Mar 20 14:23:37 2019

   => Loading Basis Set <=

    Name: 6-311++G(D,P)
    Role: ORBITAL
    Keyword: BASIS
    atoms 1, 4, 6                entry C          line   119 file /root/psi4conda/share/psi4/basis/6-311ppg_d_p_.gbs 
    atoms 2-3, 5, 7-8, 10-11, 13 entry H          line    42 file /root/psi4conda/share/psi4/basis/6-311ppg_d_p_.gbs 
    atoms 9                      entry N          line   140 file /root/psi4conda/share/psi4/basis/6-311ppg_d_p_.gbs 
    atoms 12                     entry O          line   161 file /root/psi4conda/share/psi4/basis/6-311ppg_d_p_.gbs 


         ---------------------------------------------------------
                                   SCF
            by Justin Turney, Rob Parrish, Andy Simmonett
                             and Daniel Smith
                              UKS Reference
                       32 Threads,    500 MiB Core
         ---------------------------------------------------------

  ==> Geometry <==

    Molecular point group: c1
    Full point group: C1

    Geometry (in Angstrom), charge = 0, multiplicity = 2:

       Center              X                  Y                   Z               Mass       
    ------------   -----------------  -----------------  -----------------  -----------------
         C            0.396336958715     0.884492975546    -0.298798558993    12.000000000000
         H            0.081178958715     0.520037975546    -1.273301558993     1.007825032070
         H           -0.030685041285     1.829868975546     0.017417441007     1.007825032070
         C            1.573236958715     0.475958975546     0.255820441007    12.000000000000
         H            1.960362958715     0.953217975546     1.153397441007     1.007825032070
         C           -1.425466041285    -0.334402024454     0.531719441007    12.000000000000
         H           -0.991455041285    -1.328515024454     0.485934441007     1.007825032070
         H           -1.552510041285     0.085987975546     1.531866441007     1.007825032070
         N            2.261147958715    -0.693869024454    -0.099008558993    14.003074004780
         H            2.058811958715    -1.016449024454    -1.040327558993     1.007825032070
         H            3.263722958715    -0.645103024454     0.046483441007     1.007825032070
         O           -2.506329041285    -0.228113024454    -0.325283558993    15.994914619560
         H           -2.907947041285     0.645131975546    -0.202683558993     1.007825032070

  Running in c1 symmetry.

  Rotational constants: A =      0.39217  B =      0.06183  C =      0.05850 [cm^-1]
  Rotational constants: A =  11756.99885  B =   1853.56674  C =   1753.65127 [MHz]
  Nuclear repulsion =  167.336983981895543

  Charge       = 0
  Multiplicity = 2
  Electrons    = 41
  Nalpha       = 21
  Nbeta        = 20

  ==> Algorithm <==

  SCF Algorithm Type is DF.
  DIIS enabled.
  MOM disabled.
  Fractional occupation disabled.
  Guess Type is GWH.
  Energy threshold   = 1.00e-08
  Density threshold  = 1.00e-08
  Integral threshold = 0.00e+00

  ==> Primary Basis <==

  Basis Set: 6-311++G(D,P)
    Blend: 6-311++G(D,P)
    Number of shells: 90
    Number of basis function: 166
    Number of Cartesian functions: 171
    Spherical Harmonics?: true
    Max angular momentum: 2

  ==> DFT Potential <==

   => Composite Functional: M06-2X <= 

    Hybrid M06-2X Meta-GGA XC Functional

    Y. Zhao and D. G. Truhlar,  Theor. Chem. Acc., 120, 215, 2008


    Deriv               =              1
    GGA                 =           TRUE
    Meta                =           TRUE

    Exchange Hybrid     =           TRUE
    MP2 Hybrid          =          FALSE

   => Exchange Functionals <=

    1.0000   XC_HYB_MGGA_X_M06_2X

   => Exact (HF) Exchange <=

    0.5400               HF 

   => Correlation Functionals <=

    1.0000   XC_MGGA_C_M06_2X

   => Molecular Quadrature <=

    Radial Scheme       =       TREUTLER
    Pruning Scheme      =           FLAT
    Nuclear Scheme      =       TREUTLER

    BS radius alpha     =              1
    Pruning alpha       =              1
    Radial Points       =             75
    Spherical Points    =            302
    Total Points        =         294450
    Total Blocks        =           2252
    Max Points          =            256
    Max Functions       =            158

   => Loading Basis Set <=

    Name: (6-311++G(D,P) AUX)
    Role: JKFIT
    Keyword: DF_BASIS_SCF
    atoms 1, 4, 6                entry C          line   162 file /root/psi4conda/share/psi4/basis/aug-cc-pvtz-jkfit.gbs 
    atoms 2-3, 5, 7-8, 10-11, 13 entry H          line    70 file /root/psi4conda/share/psi4/basis/aug-cc-pvtz-jkfit.gbs 
    atoms 9                      entry N          line   224 file /root/psi4conda/share/psi4/basis/aug-cc-pvtz-jkfit.gbs 
    atoms 12                     entry O          line   286 file /root/psi4conda/share/psi4/basis/aug-cc-pvtz-jkfit.gbs 

  ==> Pre-Iterations <==

   -------------------------------------------------------
    Irrep   Nso     Nmo     Nalpha   Nbeta   Ndocc  Nsocc
   -------------------------------------------------------
     A        166     166       0       0       0       0
   -------------------------------------------------------
    Total     166     166      21      20      20       1
   -------------------------------------------------------

  ==> Integral Setup <==

  DFHelper Memory: AOs need 0.230 [GiB]; user supplied 0.366 [GiB]. Using in-core AOs.

  ==> MemDFJK: Density-Fitted J/K Matrices <==

    J tasked:                   Yes
    K tasked:                   Yes
    wK tasked:                   No
    OpenMP threads:              32
    Memory (MB):                375
    Algorithm:                 Core
    Schwarz Cutoff:           1E-12
    Mask sparsity (%):       5.8789
    Fitting Condition:        1E-12

   => Auxiliary Basis Set <=

  Basis Set: (6-311++G(D,P) AUX)
    Blend: AUG-CC-PVTZ-JKFIT
    Number of shells: 262
    Number of basis function: 888
    Number of Cartesian functions: 1095
    Spherical Harmonics?: true
    Max angular momentum: 4

  Minimum eigenvalue in the overlap matrix is 4.1191785374E-05.
  Using Symmetric Orthogonalization.

  SCF Guess: Generalized Wolfsberg-Helmholtz.

  ==> Iterations <==

                           Total Energy        Delta E     RMS |[F,P]|

   @DF-UKS iter   1:  -241.05253758073843   -2.41053e+02   1.78295e-01 
   @DF-UKS iter   2:  -227.10274937042510    1.39498e+01   7.72253e-02 DIIS
   @DF-UKS iter   3:  -245.34517842162529   -1.82424e+01   4.62975e-02 DIIS
   @DF-UKS iter   4:  -248.34522151296437   -3.00004e+00   2.99381e-02 DIIS
   @DF-UKS iter   5:  -248.47370038320992   -1.28479e-01   2.69741e-02 DIIS
   @DF-UKS iter   6:  -248.94118829084641   -4.67488e-01   3.34745e-03 DIIS
   @DF-UKS iter   7:  -248.94920485892635   -8.01657e-03   1.46438e-03 DIIS
   @DF-UKS iter   8:  -248.95279579301950   -3.59093e-03   5.13492e-04 DIIS
   @DF-UKS iter   9:  -248.95333130746053   -5.35514e-04   2.48045e-04 DIIS
   @DF-UKS iter  10:  -248.95352779672919   -1.96489e-04   1.69301e-04 DIIS
   @DF-UKS iter  11:  -248.95357078932443   -4.29926e-05   5.71797e-05 DIIS
   @DF-UKS iter  12:  -248.95357545634499   -4.66702e-06   1.22425e-05 DIIS
   @DF-UKS iter  13:  -248.95357614639761   -6.90053e-07   6.15664e-06 DIIS
   @DF-UKS iter  14:  -248.95357627667534   -1.30278e-07   3.37978e-06 DIIS
   @DF-UKS iter  15:  -248.95357632131936   -4.46440e-08   2.27920e-06 DIIS
   @DF-UKS iter  16:  -248.95357633716276   -1.58434e-08   1.31868e-06 DIIS
   @DF-UKS iter  17:  -248.95357634270272   -5.53996e-09   7.41875e-07 DIIS
   @DF-UKS iter  18:  -248.95357634467450   -1.97178e-09   3.24731e-07 DIIS
   @DF-UKS iter  19:  -248.95357634512197   -4.47471e-10   7.15612e-08 DIIS
   @DF-UKS iter  20:  -248.95357634515813   -3.61524e-11   5.49713e-08 DIIS
   @DF-UKS iter  21:  -248.95357634516870   -1.05729e-11   1.24792e-08 DIIS
   @DF-UKS iter  22:  -248.95357634516938   -6.82121e-13   1.05047e-08 DIIS
   @DF-UKS iter  23:  -248.95357634516972   -3.41061e-13   4.88568e-09 DIIS

  ==> Post-Iterations <==

   @Spin Contamination Metric:   2.735143395E-02
   @S^2 Expected:                7.500000000E-01
   @S^2 Observed:                7.773514339E-01
   @S   Expected:                5.000000000E-01
   @S   Observed:                5.000000000E-01

    Orbital Energies [Eh]
    ---------------------

    Alpha Occupied:                                                       

       1A    -19.642361     2A    -14.751592     3A    -10.575602  
       4A    -10.565244     5A    -10.522928     6A     -1.165093  
       7A     -1.013727     8A     -0.825543     9A     -0.752371  
      10A     -0.664815    11A     -0.595438    12A     -0.588795  
      13A     -0.534060    14A     -0.512916    15A     -0.479079  
      16A     -0.466440    17A     -0.432611    18A     -0.412557  
      19A     -0.409676    20A     -0.297888    21A     -0.193067  

    Alpha Virtual:                                                        

      22A     -0.005366    23A      0.001850    24A      0.013718  
      25A      0.024769    26A      0.030615    27A      0.044302  
      28A      0.048961    29A      0.060347    30A      0.070679  
      31A      0.091661    32A      0.097307    33A      0.101089  
      34A      0.112848    35A      0.117054    36A      0.132202  
      37A      0.133174    38A      0.138781    39A      0.144278  
      40A      0.160037    41A      0.170226    42A      0.181747  
      43A      0.190901    44A      0.197004    45A      0.207056  
      46A      0.216266    47A      0.224596    48A      0.245102  
      49A      0.248328    50A      0.249800    51A      0.260734  
      52A      0.272363    53A      0.275567    54A      0.298830  
      55A      0.303807    56A      0.318368    57A      0.335057  
      58A      0.345170    59A      0.387318    60A      0.413905  
      61A      0.419195    62A      0.501934    63A      0.521371  
      64A      0.531955    65A      0.537993    66A      0.582244  
      67A      0.587515    68A      0.617815    69A      0.631519  
      70A      0.644638    71A      0.690550    72A      0.701904  
      73A      0.715629    74A      0.731516    75A      0.752688  
      76A      0.767024    77A      0.788690    78A      0.799021  
      79A      0.840065    80A      0.862943    81A      0.883292  
      82A      0.888129    83A      0.945246    84A      1.032443  
      85A      1.083712    86A      1.114895    87A      1.144569  
      88A      1.157158    89A      1.194471    90A      1.209187  
      91A      1.263003    92A      1.293696    93A      1.315167  
      94A      1.385992    95A      1.439601    96A      1.477496  
      97A      1.504826    98A      1.545630    99A      1.565276  
     100A      1.584103   101A      1.597728   102A      1.620236  
     103A      1.654253   104A      1.687448   105A      1.715084  
     106A      1.730685   107A      1.746990   108A      1.771654  
     109A      1.799601   110A      1.829084   111A      1.852559  
     112A      1.903505   113A      1.947094   114A      1.969509  
     115A      1.985295   116A      2.050462   117A      2.065811  
     118A      2.132359   119A      2.176435   120A      2.190294  
     121A      2.207500   122A      2.257270   123A      2.303924  
     124A      2.454524   125A      2.485733   126A      2.528043  
     127A      2.538520   128A      2.578324   129A      2.587696  
     130A      2.623882   131A      2.641951   132A      2.667232  
     133A      2.681860   134A      2.719330   135A      2.738322  
     136A      2.804029   137A      2.838567   138A      2.892554  
     139A      2.899155   140A      2.953015   141A      2.998874  
     142A      3.070235   143A      3.108160   144A      3.122732  
     145A      3.181826   146A      3.276756   147A      3.319256  
     148A      3.412801   149A      3.476675   150A      3.639621  
     151A      3.786063   152A      3.822443   153A      3.882123  
     154A      4.040007   155A      4.072789   156A      4.160481  
     157A      4.822390   158A      4.978237   159A      5.141703  
     160A      5.472044   161A      5.719914   162A     23.842364  
     163A     23.912396   164A     24.238307   165A     35.693587  
     166A     50.003601  

    Beta Occupied:                                                        

       1A    -19.639518     2A    -14.750521     3A    -10.568086  
       4A    -10.563150     5A    -10.524061     6A     -1.154434  
       7A     -1.008828     8A     -0.821607     9A     -0.727952  
      10A     -0.660711    11A     -0.590563    12A     -0.580007  
      13A     -0.529914    14A     -0.501202    15A     -0.469973  
      16A     -0.442551    17A     -0.427295    18A     -0.400814  
      19A     -0.395571    20A     -0.270575  

    Beta Virtual:                                                         

      21A     -0.006036    22A      0.000530    23A      0.003714  
      24A      0.015648    25A      0.028987    26A      0.033791  
      27A      0.045950    28A      0.055855    29A      0.064955  
      30A      0.073138    31A      0.086060    32A      0.099592  
      33A      0.110056    34A      0.113690    35A      0.116231  
      36A      0.133636    37A      0.137937    38A      0.142307  
      39A      0.143896    40A      0.158805    41A      0.165906  
      42A      0.181226    43A      0.192099    44A      0.197156  
      45A      0.208928    46A      0.219655    47A      0.225811  
      48A      0.244907    49A      0.248281    50A      0.253710  
      51A      0.262131    52A      0.273669    53A      0.280977  
      54A      0.299065    55A      0.304067    56A      0.320080  
      57A      0.338961    58A      0.347337    59A      0.389143  
      60A      0.416865    61A      0.420210    62A      0.502450  
      63A      0.522308    64A      0.537437    65A      0.543113  
      66A      0.584683    67A      0.595025    68A      0.620765  
      69A      0.637149    70A      0.648890    71A      0.701314  
      72A      0.710177    73A      0.719099    74A      0.745434  
      75A      0.756151    76A      0.767197    77A      0.788533  
      78A      0.802622    79A      0.846180    80A      0.862982  
      81A      0.888040    82A      0.895275    83A      0.960815  
      84A      1.035601    85A      1.086931    86A      1.126586  
      87A      1.152741    88A      1.161657    89A      1.198390  
      90A      1.216572    91A      1.265889    92A      1.301888  
      93A      1.327331    94A      1.389742    95A      1.445038  
      96A      1.481226    97A      1.510977    98A      1.550625  
      99A      1.572626   100A      1.589749   101A      1.602504  
     102A      1.622369   103A      1.656550   104A      1.691701  
     105A      1.725885   106A      1.737345   107A      1.753906  
     108A      1.782666   109A      1.805447   110A      1.832399  
     111A      1.855036   112A      1.905492   113A      1.953670  
     114A      1.981594   115A      1.998645   116A      2.053962  
     117A      2.068192   118A      2.141121   119A      2.185056  
     120A      2.194741   121A      2.210051   122A      2.259674  
     123A      2.306139   124A      2.458658   125A      2.492434  
     126A      2.530935   127A      2.553307   128A      2.584584  
     129A      2.599683   130A      2.625609   131A      2.647121  
     132A      2.675046   133A      2.687250   134A      2.722312  
     135A      2.755030   136A      2.806712   137A      2.841764  
     138A      2.900568   139A      2.912827   140A      2.961233  
     141A      3.015025   142A      3.073814   143A      3.112559  
     144A      3.127036   145A      3.191752   146A      3.299133  
     147A      3.322327   148A      3.421951   149A      3.479506  
     150A      3.644830   151A      3.795274   152A      3.829971  
     153A      3.889899   154A      4.049880   155A      4.078555  
     156A      4.166023   157A      4.822752   158A      4.980903  
     159A      5.156063   160A      5.476337   161A      5.722388  
     162A     23.843655   163A     23.923759   164A     24.239300  
     165A     35.692617   166A     50.001632  

    Final Occupation by Irrep:
              A 
    DOCC [    20 ]
    SOCC [     1 ]

  Energy converged.

  @DF-UKS Final Energy:  -248.95357634516972

   => Energetics <=

    Nuclear Repulsion Energy =            167.3369839818955427
    One-Electron Energy =                -668.3975093150777411
    Two-Electron Energy =                 268.7989613537492346
    DFT Exchange-Correlation Energy =     -16.6920123657368258
    Empirical Dispersion Energy =           0.0000000000000000
    VV10 Nonlocal Energy =                  0.0000000000000000
    Total Energy =                       -248.9535763451698074


  UHF NO Occupations:
  HONO-2 :   19  A 1.9994384
  HONO-1 :   20  A 1.9879148
  HONO-0 :   21  A 1.0000000
  LUNO+0 :   22  A 0.0120852
  LUNO+1 :   23  A 0.0005616
  LUNO+2 :   24  A 0.0003525
  LUNO+3 :   25  A 0.0002334



Properties will be evaluated at   0.000000,   0.000000,   0.000000 [a0]

Properties computed using the SCF density matrix

  Nuclear Dipole Moment: [e a0]
     X:     1.7452      Y:     0.9798      Z:     0.6726

  Electronic Dipole Moment: [e a0]
     X:    -1.2611      Y:    -0.4692      Z:    -0.5743

  Dipole Moment: [e a0]
     X:     0.4841      Y:     0.5106      Z:     0.0982     Total:     0.7104

  Dipole Moment: [D]
     X:     1.2305      Y:     1.2978      Z:     0.2497     Total:     1.8058


*** tstop() called on localhost.localdomain at Wed Mar 20 14:28:45 2019
Module time:
	user time   =    7595.91 seconds =     126.60 minutes
	system time =     615.38 seconds =      10.26 minutes
	total time  =        308 seconds =       5.13 minutes
Total time:
	user time   =    7595.91 seconds =     126.60 minutes
	system time =     615.38 seconds =      10.26 minutes
	total time  =        308 seconds =       5.13 minutes

*** tstart() called on localhost.localdomain
*** at Wed Mar 20 14:28:45 2019


         ------------------------------------------------------------
                                   SCF GRAD                          
                          Rob Parrish, Justin Turney,                
                       Andy Simmonett, and Alex Sokolov              
         ------------------------------------------------------------

  ==> Geometry <==

    Molecular point group: c1
    Full point group: C1

    Geometry (in Angstrom), charge = 0, multiplicity = 2:

       Center              X                  Y                   Z               Mass       
    ------------   -----------------  -----------------  -----------------  -----------------
         C            0.396336958715     0.884492975546    -0.298798558993    12.000000000000
         H            0.081178958715     0.520037975546    -1.273301558993     1.007825032070
         H           -0.030685041285     1.829868975546     0.017417441007     1.007825032070
         C            1.573236958715     0.475958975546     0.255820441007    12.000000000000
         H            1.960362958715     0.953217975546     1.153397441007     1.007825032070
         C           -1.425466041285    -0.334402024454     0.531719441007    12.000000000000
         H           -0.991455041285    -1.328515024454     0.485934441007     1.007825032070
         H           -1.552510041285     0.085987975546     1.531866441007     1.007825032070
         N            2.261147958715    -0.693869024454    -0.099008558993    14.003074004780
         H            2.058811958715    -1.016449024454    -1.040327558993     1.007825032070
         H            3.263722958715    -0.645103024454     0.046483441007     1.007825032070
         O           -2.506329041285    -0.228113024454    -0.325283558993    15.994914619560
         H           -2.907947041285     0.645131975546    -0.202683558993     1.007825032070

  Nuclear repulsion =  167.336983981895543

  ==> Basis Set <==

  Basis Set: 6-311++G(D,P)
    Blend: 6-311++G(D,P)
    Number of shells: 90
    Number of basis function: 166
    Number of Cartesian functions: 171
    Spherical Harmonics?: true
    Max angular momentum: 2

  ==> DFJKGrad: Density-Fitted SCF Gradients <==

    Gradient:                    1
    J tasked:                  Yes
    K tasked:                  Yes
    wK tasked:                  No
    OpenMP threads:             32
    Integrals threads:          32
    Memory (MB):               375
    Schwarz Cutoff:          0E+00
    Fitting Condition:       1E-12

   => Auxiliary Basis Set <=

  Basis Set: (6-311++G(D,P) AUX)
    Blend: AUG-CC-PVTZ-JKFIT
    Number of shells: 262
    Number of basis function: 888
    Number of Cartesian functions: 1095
    Spherical Harmonics?: true
    Max angular momentum: 4

  ==> DFT Potential <==

   => Composite Functional: M06-2X <= 

    Hybrid M06-2X Meta-GGA XC Functional

    Y. Zhao and D. G. Truhlar,  Theor. Chem. Acc., 120, 215, 2008


    Deriv               =              1
    GGA                 =           TRUE
    Meta                =           TRUE

    Exchange Hybrid     =           TRUE
    MP2 Hybrid          =          FALSE

   => Exchange Functionals <=

    1.0000   XC_HYB_MGGA_X_M06_2X

   => Exact (HF) Exchange <=

    0.5400               HF 

   => Correlation Functionals <=

    1.0000   XC_MGGA_C_M06_2X

   => Molecular Quadrature <=

    Radial Scheme       =       TREUTLER
    Pruning Scheme      =           FLAT
    Nuclear Scheme      =       TREUTLER

    BS radius alpha     =              1
    Pruning alpha       =              1
    Radial Points       =             75
    Spherical Points    =            302
    Total Points        =         294450
    Total Blocks        =           2252
    Max Points          =            256
    Max Functions       =            158


  -Total Gradient:
     Atom            X                  Y                   Z
    ------   -----------------  -----------------  -----------------
       1       -0.012167670002    -0.002007993827     0.000340085569
       2        0.000035284930     0.001422529173    -0.002100067254
       3       -0.000771995806     0.002196816693    -0.000832660653
       4        0.008361553064     0.000006565298     0.000720324502
       5        0.001053900649     0.000116888747     0.002169210973
       6        0.006777171872     0.006426577739    -0.001712524317
       7       -0.000548406041    -0.002108500851     0.000558998801
       8       -0.000498181434    -0.000475451506     0.003336283445
       9       -0.000886183790    -0.003370436651     0.004283642747
      10        0.000121656904    -0.000424100453    -0.002953913783
      11        0.003455416278     0.000584086698    -0.000645025627
      12       -0.002496288712    -0.010766224785    -0.005084985385
      13       -0.002492249006     0.008432753700     0.001896473578


*** tstop() called on localhost.localdomain at Wed Mar 20 14:29:08 2019
Module time:
	user time   =     539.06 seconds =       8.98 minutes
	system time =      42.75 seconds =       0.71 minutes
	total time  =         23 seconds =       0.38 minutes
Total time:
	user time   =    8135.05 seconds =     135.58 minutes
	system time =     658.14 seconds =      10.97 minutes
	total time  =        331 seconds =       5.52 minutes

			-----------------------------------------
			 OPTKING 2.0: for geometry optimizations 
			  - R.A. King,  Bethel University        
			-----------------------------------------

	Internal coordinates to be generated automatically.
	Detected frag 1 with atoms:  1 2 3 4 5 9 10 11
	Detected frag 2 with atoms:  6 7 8 12 13
	Unifying fragments since fragment_mode == SINGLE
	Connecting fragments 1 and 2
	---Fragment 1 Bond Connectivity---
	 1 : 2 3 4 6
	 2 : 1
	 3 : 1
	 4 : 1 5 9
	 5 : 4
	 6 : 1 7 8 12
	 7 : 6
	 8 : 6
	 9 : 4 10 11
	 10 : 9
	 11 : 9
	 12 : 6 13
	 13 : 12

	---Fragment 1 Geometry and Gradient---
	 C           0.7489683083        1.6714494902       -0.5646474454
	 H           0.1534059997        0.9827293525       -2.4061912311
	 H          -0.0579863244        3.4579512228        0.0329141934
	 C           2.9729869941        0.8994321143        0.4834305727
	 H           3.7045491130        1.8013209187        2.1796052859
	 C          -2.6937404298       -0.6319282445        1.0048041230
	 H          -1.8735785011       -2.5105295596        0.9182830120
	 H          -2.9338187966        0.1624937245        2.8948080457
	 N           4.2729503879       -1.3112224283       -0.1870990613
	 H           3.8905907611       -1.9208102843       -1.9659341750
	 H           6.1675425656       -1.2190680437        0.0878409732
	 O          -4.7362754869       -0.4310711436       -0.6146968420
	 H          -5.4952235170        1.2191227533       -0.3830164181
	            -0.0121676700       -0.0020079938        0.0003400856
	             0.0000352849        0.0014225292       -0.0021000673
	            -0.0007719958        0.0021968167       -0.0008326607
	             0.0083615531        0.0000065653        0.0007203245
	             0.0010539006        0.0001168887        0.0021692110
	             0.0067771719        0.0064265777       -0.0017125243
	            -0.0005484060       -0.0021085009        0.0005589988
	            -0.0004981814       -0.0004754515        0.0033362834
	            -0.0008861838       -0.0033704367        0.0042836427
	             0.0001216569       -0.0004241005       -0.0029539138
	             0.0034554163        0.0005840867       -0.0006450256
	            -0.0024962887       -0.0107662248       -0.0050849854
	            -0.0024922490        0.0084327537        0.0018964736

	Previous optimization step data not found.  Starting new optimization.

	---Fragment 1 Intrafragment Coordinates---
	 - Coordinate -           - BOHR/RAD -       - ANG/DEG -
	 R(1,2)           =         2.054340	       1.087110
	 R(1,3)           =         2.049352	       1.084470
	 R(1,4)           =         2.576963	       1.363670
	 R(1,6)           =         4.429556	       2.344020
	 R(4,5)           =         2.055625	       1.087790
	 R(4,9)           =         2.650756	       1.402720
	 R(6,7)           =         2.051656	       1.085690
	 R(6,8)           =         2.064185	       1.092320
	 R(6,12)          =         2.614398	       1.383480
	 R(9,10)          =         1.918867	       1.015421
	 R(9,11)          =         1.916654	       1.014250
	 R(12,13)         =         1.831070	       0.968961
	 B(1,4,5)         =         2.107485	     120.749999
	 B(1,4,9)         =         2.177556	     124.764786
	 B(1,6,7)         =         1.721873	      98.656069
	 B(1,6,8)         =         1.787163	     102.396918
	 B(1,6,12)        =         1.925995	     110.351411
	 B(2,1,3)         =         2.025817	     116.070767
	 B(2,1,4)         =         2.111040	     120.953664
	 B(2,1,6)         =         1.488668	      85.294370
	 B(3,1,4)         =         2.074188	     118.842226
	 B(3,1,6)         =         1.614768	      92.519395
	 B(4,1,6)         =         1.950750	     111.769744
	 B(4,9,10)        =         1.984184	     113.685357
	 B(4,9,11)        =         1.991478	     114.103293
	 B(5,4,9)         =         1.982416	     113.584047
	 B(6,12,13)       =         1.890917	     108.341565
	 B(7,6,8)         =         2.023618	     115.944764
	 B(7,6,12)        =         1.935357	     110.887778
	 B(8,6,12)        =         2.033925	     116.535337
	 B(10,9,11)       =         1.923273	     110.195441
	 D(1,4,9,10)      =         0.432941	      24.805679
	 D(1,4,9,11)      =         2.658840	     152.340287
	 D(1,6,12,13)     =        -1.331306	     -76.278211
	 D(2,1,4,5)       =         2.976132	     170.519796
	 D(2,1,4,9)       =        -0.367529	     -21.057836
	 D(2,1,6,7)       =         1.349213	      77.304231
	 D(2,1,6,8)       =        -2.855013	    -163.580193
	 D(2,1,6,12)      =        -0.678438	     -38.871612
	 D(3,1,4,5)       =         0.248998	      14.266551
	 D(3,1,4,9)       =        -3.094662	    -177.311080
	 D(3,1,6,7)       =        -2.910056	    -166.733949
	 D(3,1,6,8)       =        -0.831097	     -47.618373
	 D(3,1,6,12)      =         1.345478	      77.090208
	 D(4,1,6,7)       =        -0.771767	     -44.218997
	 D(4,1,6,8)       =         1.307192	      74.896579
	 D(4,1,6,12)      =        -2.799418	    -160.394840
	 D(5,4,1,6)       =        -1.599316	     -91.634053
	 D(5,4,9,10)      =        -2.897979	    -166.041985
	 D(5,4,9,11)      =        -0.672081	     -38.507377
	 D(6,1,4,9)       =         1.340209	      76.788316
	 D(7,6,12,13)     =         3.062344	     175.459405
	 D(8,6,12,13)     =         0.696384	      39.899844

	Current energy   :      -248.9535763452

	Generating empirical Hessian (Schlegel '84) for each fragment.
	Taking PRFO optimization step.
	Maximizing along 1 lowest eigenvalue of Hessian.

 RFO min eigenvalues
 -0.001229 -0.000000 -0.000000 -0.000000 -0.000000 -0.000000 -0.000000 -0.000000
 -0.000000 -0.000000  0.000000  0.000000  0.000000  0.000000  0.000000  0.000000
  0.000000  0.000000  0.000000  0.000000  0.002300  0.007145  0.011205  0.019185
  0.022980  0.043454  0.046413  0.050833  0.053831  0.057183  0.067888  0.091714
  0.100746  0.119844  0.134331  0.158249  0.160000  0.160000  0.160045  0.219869
  0.220480  0.224219  0.345484  0.350707  0.351493  0.353163  0.354607  0.450785
  0.451760  0.452708  0.484783  0.522441  0.536050

 RFO max eigenvalues
 -0.000000  0.000000
	|RFO target step|  :        0.1133048941
	RFO gradient       :       -0.0108451424
	RFO hessian        :        0.0946140333
	Projected Delta(E) :       -0.0006136028

	Back-transformation to cartesian coordinates...
	Successfully converged to displaced geometry.
	First geometry is closer to target in internal coordinates, so am using that one.
	First geometry has RMS(Delta(q)) = 5.01e-03

	--- Internal Coordinate Step in ANG or DEG, aJ/ANG or AJ/DEG ---
	 ---------------------------------------------------------------------------
	   Coordinate                Previous        Force       Change         New 
	   ----------                --------       ------       ------       ------
	    1 R(1,2)          =      1.087110    -0.011374    -0.001922     1.085188
	    2 R(1,3)          =      1.084470    -0.016263    -0.002876     1.081595
	    3 R(1,4)          =      1.363670    -0.106108    -0.012949     1.350721
	    4 R(1,6)          =      2.344020     0.014583     0.019733     2.363753
	    5 R(4,5)          =      1.087790    -0.018286    -0.003334     1.084456
	    6 R(4,9)          =      1.402720    -0.031920    -0.004438     1.398281
	    7 R(6,7)          =      1.085690    -0.013842    -0.002383     1.083306
	    8 R(6,8)          =      1.092320    -0.024101    -0.004405     1.087915
	    9 R(6,12)         =      1.383480    -0.046919    -0.006097     1.377382
	   10 R(9,10)         =      1.015421    -0.023542    -0.003340     1.012081
	   11 R(9,11)         =      1.014250    -0.027573    -0.003315     1.010934
	   12 R(12,13)        =      0.968961    -0.073302    -0.008480     0.960481
	   13 B(1,4,5)        =    120.749999     0.000025     0.035148   120.785147
	   14 B(1,4,9)        =    124.764786    -0.000176    -0.579276   124.185509
	   15 B(1,6,7)        =     98.656069    -0.000062    -0.515979    98.140090
	   16 B(1,6,8)        =    102.396918    -0.000016    -0.568881   101.828038
	   17 B(1,6,12)       =    110.351411    -0.000191    -0.866680   109.484731
	   18 B(2,1,3)        =    116.070767     0.000050     0.761366   116.832133
	   19 B(2,1,4)        =    120.953664     0.000008    -0.037801   120.915863
	   20 B(2,1,6)        =     85.294370    -0.000027    -0.811583    84.482788
	   21 B(3,1,4)        =    118.842226     0.000006     0.059558   118.901784
	   22 B(3,1,6)        =     92.519395     0.000048    -0.214401    92.304994
	   23 B(4,1,6)        =    111.769744    -0.000165    -0.867012   110.902732
	   24 B(4,9,10)       =    113.685357     0.000025     0.447412   114.132768
	   25 B(4,9,11)       =    114.103293     0.000024     0.424389   114.527682
	   26 B(5,4,9)        =    113.584047     0.000151     0.627303   114.211349
	   27 B(6,12,13)      =    108.341565     0.000203     0.936240   109.277804
	   28 B(7,6,8)        =    115.944764     0.000056     0.799507   116.744271
	   29 B(7,6,12)       =    110.887778     0.000111     0.775067   111.662845
	   30 B(8,6,12)       =    116.535337     0.000042    -0.055051   116.480285
	   31 B(10,9,11)      =    110.195441     0.000045     0.708883   110.904324
	   32 D(1,4,9,10)     =     24.805679    -0.000011    -0.563969    24.241710
	   33 D(1,4,9,11)     =    152.340287     0.000014     1.261491   153.601778
	   34 D(1,6,12,13)    =    -76.278211    -0.000002    -1.154623   -77.432834
	   35 D(2,1,4,5)      =    170.519796     0.000022     0.918228   171.438024
	   36 D(2,1,4,9)      =    -21.057836     0.000026     1.528945   -19.528891
	   37 D(2,1,6,7)      =     77.304231    -0.000006    -0.537111    76.767120
	   38 D(2,1,6,8)      =   -163.580193     0.000002    -0.022135  -163.602328
	   39 D(2,1,6,12)     =    -38.871612    -0.000012    -0.859033   -39.730644
	   40 D(3,1,4,5)      =     14.266551    -0.000021    -1.513593    12.752958
	   41 D(3,1,4,9)      =   -177.311080    -0.000017    -0.902876  -178.213957
	   42 D(3,1,6,7)      =   -166.733949     0.000004     0.242065  -166.491884
	   43 D(3,1,6,8)      =    -47.618373     0.000012     0.757041   -46.861332
	   44 D(3,1,6,12)     =     77.090208    -0.000002    -0.079857    77.010351
	   45 D(4,1,6,7)      =    -44.218997    -0.000000    -0.054353   -44.273350
	   46 D(4,1,6,8)      =     74.896579     0.000008     0.460623    75.357202
	   47 D(4,1,6,12)     =   -160.394840    -0.000006    -0.376275  -160.771115
	   48 D(5,4,1,6)      =    -91.634053    -0.000010    -0.684394   -92.318447
	   49 D(5,4,9,10)     =   -166.041985    -0.000009    -0.039358  -166.081343
	   50 D(5,4,9,11)     =    -38.507377     0.000015     1.786102   -36.721275
	   51 D(6,1,4,9)      =     76.788316    -0.000006    -0.073677    76.714638
	   52 D(7,6,12,13)    =    175.459405     0.000025    -0.478754   174.980651
	   53 D(8,6,12,13)    =     39.899844    -0.000033    -2.550679    37.349165
	 ---------------------------------------------------------------------------
	Successfully symmetrized geometry.

  ==> Convergence Check <==

  Measures of convergence in internal coordinates in au.
  Criteria marked as inactive (o), active & met (*), and active & unmet ( ).
  --------------------------------------------------------------------------------------------- ~
   Step     Total Energy     Delta E     MAX Force     RMS Force      MAX Disp      RMS Disp    ~
  --------------------------------------------------------------------------------------------- ~
    Convergence Criteria    1.00e-06 *    3.00e-04 *             o    1.20e-03 *             o  ~
  --------------------------------------------------------------------------------------------- ~
      1    -248.95357635   -2.49e+02      1.29e-02      2.70e-03 o    4.45e-02      1.48e-02 o  ~
  ---------------------------------------------------------------------------------------------

	Writing optimization data to binary file.
	Structure for next step:
	Cartesian Geometry (in Angstrom)
	    C     0.4092890635   0.8970053114  -0.3038201245
	    H     0.0899328327   0.5175580055  -1.2690478350
	    H    -0.0226943128   1.8344019700   0.0194835315
	    C     1.5678420854   0.4849034106   0.2550839515
	    H     1.9539809759   0.9630182850   1.1485867891
	    C    -1.4195749564  -0.3443711119   0.5337785508
	    H    -0.9726387199  -1.3298258042   0.4820121945
	    H    -1.5449241708   0.0848650028   1.5255458869
	    N     2.2402349208  -0.6872499205  -0.1042700576
	    H     2.0360114902  -1.0107627162  -1.0412548901
	    H     3.2373771092  -0.6665067192   0.0608524417
	    O    -2.4884759130  -0.2250128012  -0.3266787673
	    H    -2.9059539415   0.6302227700  -0.1970359384
			--------------------------
			 OPTKING Finished Execution 
			--------------------------

    Structure for next step:
    Molecular point group: c1
    Full point group: C1

    Geometry (in Angstrom), charge = 0, multiplicity = 2:

    C            0.407349806138     0.893511484795    -0.302065560441
    H            0.087993575285     0.514064178886    -1.267293270911
    H           -0.024633570167     1.830908143394     0.021238095630
    C            1.565902828033     0.481409583988     0.256838515576
    H            1.952041718463     0.959524458361     1.150341353244
    C           -1.421514213835    -0.347864938510     0.535533114926
    H           -0.974577977272    -1.333319630779     0.483766758567
    H           -1.546863428170     0.081371176208     1.527300450996
    N            2.238295663397    -0.690743747045    -0.102515493503
    H            2.034072232849    -1.014256542781    -1.039500325984
    H            3.235437851781    -0.670000545808     0.062607005820
    O           -2.490415170423    -0.228506627745    -0.324924203242
    H           -2.907893198871     0.626728943410    -0.195281374351

gradient() will perform analytic gradient computation.

*** tstart() called on localhost.localdomain
*** at Wed Mar 20 14:29:08 2019

   => Loading Basis Set <=

    Name: 6-311++G(D,P)
    Role: ORBITAL
    Keyword: BASIS
    atoms 1, 4, 6                entry C          line   119 file /root/psi4conda/share/psi4/basis/6-311ppg_d_p_.gbs 
    atoms 2-3, 5, 7-8, 10-11, 13 entry H          line    42 file /root/psi4conda/share/psi4/basis/6-311ppg_d_p_.gbs 
    atoms 9                      entry N          line   140 file /root/psi4conda/share/psi4/basis/6-311ppg_d_p_.gbs 
    atoms 12                     entry O          line   161 file /root/psi4conda/share/psi4/basis/6-311ppg_d_p_.gbs 


         ---------------------------------------------------------
                                   SCF
            by Justin Turney, Rob Parrish, Andy Simmonett
                             and Daniel Smith
                              UKS Reference
                       32 Threads,    500 MiB Core
         ---------------------------------------------------------

  ==> Geometry <==

    Molecular point group: c1
    Full point group: C1

    Geometry (in Angstrom), charge = 0, multiplicity = 2:

       Center              X                  Y                   Z               Mass       
    ------------   -----------------  -----------------  -----------------  -----------------
         C            0.407349806138     0.893511484795    -0.302065560441    12.000000000000
         H            0.087993575285     0.514064178886    -1.267293270911     1.007825032070
         H           -0.024633570167     1.830908143394     0.021238095630     1.007825032070
         C            1.565902828033     0.481409583988     0.256838515576    12.000000000000
         H            1.952041718463     0.959524458361     1.150341353244     1.007825032070
         C           -1.421514213835    -0.347864938510     0.535533114926    12.000000000000
         H           -0.974577977272    -1.333319630779     0.483766758567     1.007825032070
         H           -1.546863428170     0.081371176208     1.527300450996     1.007825032070
         N            2.238295663397    -0.690743747045    -0.102515493503    14.003074004780
         H            2.034072232849    -1.014256542781    -1.039500325984     1.007825032070
         H            3.235437851781    -0.670000545808     0.062607005820     1.007825032070
         O           -2.490415170423    -0.228506627745    -0.324924203242    15.994914619560
         H           -2.907893198871     0.626728943410    -0.195281374351     1.007825032070

  Running in c1 symmetry.

  Rotational constants: A =      0.38893  B =      0.06259  C =      0.05912 [cm^-1]
  Rotational constants: A =  11659.87550  B =   1876.50786  C =   1772.37410 [MHz]
  Nuclear repulsion =  167.995389195445426

  Charge       = 0
  Multiplicity = 2
  Electrons    = 41
  Nalpha       = 21
  Nbeta        = 20

  ==> Algorithm <==

  SCF Algorithm Type is DF.
  DIIS enabled.
  MOM disabled.
  Fractional occupation disabled.
  Guess Type is READ.
  Energy threshold   = 1.00e-08
  Density threshold  = 1.00e-08
  Integral threshold = 0.00e+00

  ==> Primary Basis <==

  Basis Set: 6-311++G(D,P)
    Blend: 6-311++G(D,P)
    Number of shells: 90
    Number of basis function: 166
    Number of Cartesian functions: 171
    Spherical Harmonics?: true
    Max angular momentum: 2

  ==> DFT Potential <==

   => Composite Functional: M06-2X <= 

    Hybrid M06-2X Meta-GGA XC Functional

    Y. Zhao and D. G. Truhlar,  Theor. Chem. Acc., 120, 215, 2008


    Deriv               =              1
    GGA                 =           TRUE
    Meta                =           TRUE

    Exchange Hybrid     =           TRUE
    MP2 Hybrid          =          FALSE

   => Exchange Functionals <=

    1.0000   XC_HYB_MGGA_X_M06_2X

   => Exact (HF) Exchange <=

    0.5400               HF 

   => Correlation Functionals <=

    1.0000   XC_MGGA_C_M06_2X

   => Molecular Quadrature <=

    Radial Scheme       =       TREUTLER
    Pruning Scheme      =           FLAT
    Nuclear Scheme      =       TREUTLER

    BS radius alpha     =              1
    Pruning alpha       =              1
    Radial Points       =             75
    Spherical Points    =            302
    Total Points        =         294450
    Total Blocks        =           2250
    Max Points          =            256
    Max Functions       =            158

   => Loading Basis Set <=

    Name: (6-311++G(D,P) AUX)
    Role: JKFIT
    Keyword: DF_BASIS_SCF
    atoms 1, 4, 6                entry C          line   162 file /root/psi4conda/share/psi4/basis/aug-cc-pvtz-jkfit.gbs 
    atoms 2-3, 5, 7-8, 10-11, 13 entry H          line    70 file /root/psi4conda/share/psi4/basis/aug-cc-pvtz-jkfit.gbs 
    atoms 9                      entry N          line   224 file /root/psi4conda/share/psi4/basis/aug-cc-pvtz-jkfit.gbs 
    atoms 12                     entry O          line   286 file /root/psi4conda/share/psi4/basis/aug-cc-pvtz-jkfit.gbs 

  Reading orbitals from file 180, no projection.

  ==> Pre-Iterations <==

   -------------------------------------------------------
    Irrep   Nso     Nmo     Nalpha   Nbeta   Ndocc  Nsocc
   -------------------------------------------------------
     A        166     166       0       0       0       0
   -------------------------------------------------------
    Total     166     166      21      20      20       1
   -------------------------------------------------------

  ==> Integral Setup <==

  DFHelper Memory: AOs need 0.230 [GiB]; user supplied 0.366 [GiB]. Using in-core AOs.

  ==> MemDFJK: Density-Fitted J/K Matrices <==

    J tasked:                   Yes
    K tasked:                   Yes
    wK tasked:                   No
    OpenMP threads:              32
    Memory (MB):                375
    Algorithm:                 Core
    Schwarz Cutoff:           1E-12
    Mask sparsity (%):       5.8136
    Fitting Condition:        1E-12

   => Auxiliary Basis Set <=

  Basis Set: (6-311++G(D,P) AUX)
    Blend: AUG-CC-PVTZ-JKFIT
    Number of shells: 262
    Number of basis function: 888
    Number of Cartesian functions: 1095
    Spherical Harmonics?: true
    Max angular momentum: 4

  Minimum eigenvalue in the overlap matrix is 3.9248607424E-05.
  Using Symmetric Orthogonalization.

  SCF Guess: Orbitals guess was supplied from a previous computation.

  ==> Iterations <==

                           Total Energy        Delta E     RMS |[F,P]|

   @DF-UKS iter   0:  -248.97681240694715   -2.48977e+02   1.48076e-03 
   @DF-UKS iter   1:  -248.95438566459745    2.24267e-02   1.54907e-04 
   @DF-UKS iter   2:  -248.95443412458258   -4.84600e-05   2.20859e-04 DIIS
   @DF-UKS iter   3:  -248.95446397896399   -2.98544e-05   7.21851e-05 DIIS
   @DF-UKS iter   4:  -248.95447360812580   -9.62916e-06   2.36032e-05 DIIS
   @DF-UKS iter   5:  -248.95447829789077   -4.68976e-06   2.29549e-05 DIIS
   @DF-UKS iter   6:  -248.95448103008266   -2.73219e-06   5.90961e-06 DIIS
   @DF-UKS iter   7:  -248.95448157063856   -5.40556e-07   5.69307e-06 DIIS
   @DF-UKS iter   8:  -248.95448161453089   -4.38923e-08   1.91348e-06 DIIS
   @DF-UKS iter   9:  -248.95448162078151   -6.25062e-09   7.32746e-07 DIIS
   @DF-UKS iter  10:  -248.95448162151092   -7.29415e-10   3.93868e-07 DIIS
   @DF-UKS iter  11:  -248.95448162166019   -1.49271e-10   6.28955e-08 DIIS
   @DF-UKS iter  12:  -248.95448162167520   -1.50067e-11   2.83134e-08 DIIS
   @DF-UKS iter  13:  -248.95448162167861   -3.41061e-12   1.28455e-08 DIIS
   @DF-UKS iter  14:  -248.95448162167952   -9.09495e-13   9.41266e-09 DIIS

  ==> Post-Iterations <==

   @Spin Contamination Metric:   2.364651020E-02
   @S^2 Expected:                7.500000000E-01
   @S^2 Observed:                7.736465102E-01
   @S   Expected:                5.000000000E-01
   @S   Observed:                5.000000000E-01

    Orbital Energies [Eh]
    ---------------------

    Alpha Occupied:                                                       

       1A    -19.641644     2A    -14.749549     3A    -10.573331  
       4A    -10.562501     5A    -10.518545     6A     -1.168416  
       7A     -1.014556     8A     -0.827144     9A     -0.754712  
      10A     -0.664480    11A     -0.597709    12A     -0.591044  
      13A     -0.535496    14A     -0.515370    15A     -0.479967  
      16A     -0.466359    17A     -0.433119    18A     -0.412341  
      19A     -0.410888    20A     -0.295339    21A     -0.192620  

    Alpha Virtual:                                                        

      22A     -0.005104    23A      0.002129    24A      0.013773  
      25A      0.025103    26A      0.030835    27A      0.044382  
      28A      0.048903    29A      0.060422    30A      0.071322  
      31A      0.091770    32A      0.097648    33A      0.101914  
      34A      0.113241    35A      0.117812    36A      0.132168  
      37A      0.133727    38A      0.138634    39A      0.144202  
      40A      0.160490    41A      0.170406    42A      0.182256  
      43A      0.191639    44A      0.198088    45A      0.207686  
      46A      0.217823    47A      0.225213    48A      0.247359  
      49A      0.249354    50A      0.252198    51A      0.262125  
      52A      0.273279    53A      0.276321    54A      0.299690  
      55A      0.304988    56A      0.318025    57A      0.337073  
      58A      0.345355    59A      0.391320    60A      0.416277  
      61A      0.423959    62A      0.505000    63A      0.523446  
      64A      0.531952    65A      0.538487    66A      0.584747  
      67A      0.590832    68A      0.617910    69A      0.632780  
      70A      0.649104    71A      0.692329    72A      0.705656  
      73A      0.716356    74A      0.729662    75A      0.757197  
      76A      0.768024    77A      0.792705    78A      0.808254  
      79A      0.840635    80A      0.865022    81A      0.885127  
      82A      0.889634    83A      0.948790    84A      1.033037  
      85A      1.086308    86A      1.116984    87A      1.144417  
      88A      1.154892    89A      1.195958    90A      1.214138  
      91A      1.262580    92A      1.295269    93A      1.316905  
      94A      1.381519    95A      1.444557    96A      1.483524  
      97A      1.505472    98A      1.545969    99A      1.563389  
     100A      1.585145   101A      1.600009   102A      1.624812  
     103A      1.656864   104A      1.689693   105A      1.716211  
     106A      1.735754   107A      1.750435   108A      1.773630  
     109A      1.803441   110A      1.833843   111A      1.857867  
     112A      1.908690   113A      1.951880   114A      1.975548  
     115A      1.988796   116A      2.058238   117A      2.071678  
     118A      2.142240   119A      2.180553   120A      2.194578  
     121A      2.216997   122A      2.260534   123A      2.308049  
     124A      2.457751   125A      2.489968   126A      2.532130  
     127A      2.548293   128A      2.581705   129A      2.590925  
     130A      2.627745   131A      2.643185   132A      2.673582  
     133A      2.682578   134A      2.727039   135A      2.738452  
     136A      2.809907   137A      2.849902   138A      2.894137  
     139A      2.900871   140A      2.956727   141A      3.005212  
     142A      3.075733   143A      3.116265   144A      3.130712  
     145A      3.189391   146A      3.281462   147A      3.345672  
     148A      3.423685   149A      3.500382   150A      3.648517  
     151A      3.795738   152A      3.830713   153A      3.890494  
     154A      4.039650   155A      4.072109   156A      4.157825  
     157A      4.837099   158A      4.993932   159A      5.140916  
     160A      5.474240   161A      5.744213   162A     23.845367  
     163A     23.923273   164A     24.283764   165A     35.703446  
     166A     50.009364  

    Beta Occupied:                                                        

       1A    -19.638698     2A    -14.748597     3A    -10.565685  
       4A    -10.560634     5A    -10.519542     6A     -1.157415  
       7A     -1.010177     8A     -0.823499     9A     -0.729489  
      10A     -0.660798    11A     -0.592488    12A     -0.582390  
      13A     -0.531679    14A     -0.503502    15A     -0.470352  
      16A     -0.441782    17A     -0.427850    18A     -0.401945  
      19A     -0.396962    20A     -0.269096  

    Beta Virtual:                                                         

      21A     -0.005003    22A      0.002268    23A      0.005710  
      24A      0.015739    25A      0.029228    26A      0.034480  
      27A      0.045957    28A      0.056052    29A      0.065485  
      30A      0.073353    31A      0.086197    32A      0.100135  
      33A      0.110250    34A      0.114596    35A      0.116608  
      36A      0.133867    37A      0.137795    38A      0.143002  
      39A      0.144190    40A      0.159287    41A      0.166076  
      42A      0.181849    43A      0.192967    44A      0.198316  
      45A      0.209693    46A      0.221168    47A      0.226638  
      48A      0.246881    49A      0.249771    50A      0.255034  
      51A      0.263643    52A      0.275015    53A      0.281627  
      54A      0.299641    55A      0.305254    56A      0.320113  
      57A      0.341129    58A      0.347921    59A      0.393119  
      60A      0.418965    61A      0.424943    62A      0.505466  
      63A      0.524503    64A      0.537444    65A      0.544224  
      66A      0.587264    67A      0.598219    68A      0.621296  
      69A      0.638017    70A      0.653284    71A      0.703365  
      72A      0.713483    73A      0.720451    74A      0.743588  
      75A      0.760630    76A      0.768632    77A      0.792334  
      78A      0.811656    79A      0.846602    80A      0.865195  
      81A      0.889659    82A      0.896268    83A      0.963465  
      84A      1.036211    85A      1.089102    86A      1.129397  
      87A      1.150761    88A      1.161203    89A      1.199872  
      90A      1.221140    91A      1.265893    92A      1.303371  
      93A      1.329350    94A      1.385066    95A      1.450544  
      96A      1.486922    97A      1.511969    98A      1.550382  
      99A      1.571556   100A      1.591739   101A      1.605628  
     102A      1.626850   103A      1.658847   104A      1.694036  
     105A      1.726769   106A      1.743128   107A      1.757159  
     108A      1.784029   109A      1.809586   110A      1.836874  
     111A      1.860606   112A      1.910370   113A      1.962530  
     114A      1.984999   115A      2.001685   116A      2.061320  
     117A      2.073700   118A      2.151237   119A      2.188985  
     120A      2.198688   121A      2.219442   122A      2.262440  
     123A      2.310684   124A      2.461885   125A      2.497072  
     126A      2.535132   127A      2.561477   128A      2.589276  
     129A      2.601627   130A      2.629652   131A      2.649565  
     132A      2.680082   133A      2.690350   134A      2.730415  
     135A      2.755669   136A      2.812972   137A      2.852999  
     138A      2.902172   139A      2.914987   140A      2.963440  
     141A      3.020768   142A      3.079471   143A      3.121254  
     144A      3.134467   145A      3.200151   146A      3.304091  
     147A      3.348339   148A      3.432543   149A      3.503137  
     150A      3.653214   151A      3.805690   152A      3.839876  
     153A      3.897431   154A      4.049835   155A      4.077313  
     156A      4.162750   157A      4.837435   158A      4.996292  
     159A      5.155867   160A      5.478626   161A      5.746753  
     162A     23.846484   163A     23.934524   164A     24.284751  
     165A     35.702557   166A     50.007314  

    Final Occupation by Irrep:
              A 
    DOCC [    20 ]
    SOCC [     1 ]

  Energy converged.

  @DF-UKS Final Energy:  -248.95448162167952

   => Energetics <=

    Nuclear Repulsion Energy =            167.9953891954454264
    One-Electron Energy =                -669.6971491590311416
    Two-Electron Energy =                 269.4504831578350377
    DFT Exchange-Correlation Energy =     -16.7032048159288529
    Empirical Dispersion Energy =           0.0000000000000000
    VV10 Nonlocal Energy =                  0.0000000000000000
    Total Energy =                       -248.9544816216794914


  UHF NO Occupations:
  HONO-2 :   19  A 1.9993888
  HONO-1 :   20  A 1.9898071
  HONO-0 :   21  A 1.0000000
  LUNO+0 :   22  A 0.0101929
  LUNO+1 :   23  A 0.0006112
  LUNO+2 :   24  A 0.0003579
  LUNO+3 :   25  A 0.0002399



Properties will be evaluated at   0.000000,   0.000000,   0.000000 [a0]

Properties computed using the SCF density matrix

  Nuclear Dipole Moment: [e a0]
     X:     1.7211      Y:     0.9337      Z:     0.6954

  Electronic Dipole Moment: [e a0]
     X:    -1.2578      Y:    -0.4491      Z:    -0.5754

  Dipole Moment: [e a0]
     X:     0.4633      Y:     0.4846      Z:     0.1200     Total:     0.6811

  Dipole Moment: [D]
     X:     1.1776      Y:     1.2318      Z:     0.3050     Total:     1.7312


*** tstop() called on localhost.localdomain at Wed Mar 20 14:32:28 2019
Module time:
	user time   =    4903.74 seconds =      81.73 minutes
	system time =     392.38 seconds =       6.54 minutes
	total time  =        200 seconds =       3.33 minutes
Total time:
	user time   =   13039.98 seconds =     217.33 minutes
	system time =    1050.61 seconds =      17.51 minutes
	total time  =        531 seconds =       8.85 minutes

*** tstart() called on localhost.localdomain
*** at Wed Mar 20 14:32:28 2019


         ------------------------------------------------------------
                                   SCF GRAD                          
                          Rob Parrish, Justin Turney,                
                       Andy Simmonett, and Alex Sokolov              
         ------------------------------------------------------------

  ==> Geometry <==

    Molecular point group: c1
    Full point group: C1

    Geometry (in Angstrom), charge = 0, multiplicity = 2:

       Center              X                  Y                   Z               Mass       
    ------------   -----------------  -----------------  -----------------  -----------------
         C            0.407349806138     0.893511484795    -0.302065560441    12.000000000000
         H            0.087993575285     0.514064178886    -1.267293270911     1.007825032070
         H           -0.024633570167     1.830908143394     0.021238095630     1.007825032070
         C            1.565902828033     0.481409583988     0.256838515576    12.000000000000
         H            1.952041718463     0.959524458361     1.150341353244     1.007825032070
         C           -1.421514213835    -0.347864938510     0.535533114926    12.000000000000
         H           -0.974577977272    -1.333319630779     0.483766758567     1.007825032070
         H           -1.546863428170     0.081371176208     1.527300450996     1.007825032070
         N            2.238295663397    -0.690743747045    -0.102515493503    14.003074004780
         H            2.034072232849    -1.014256542781    -1.039500325984     1.007825032070
         H            3.235437851781    -0.670000545808     0.062607005820     1.007825032070
         O           -2.490415170423    -0.228506627745    -0.324924203242    15.994914619560
         H           -2.907893198871     0.626728943410    -0.195281374351     1.007825032070

  Nuclear repulsion =  167.995389195445426

  ==> Basis Set <==

  Basis Set: 6-311++G(D,P)
    Blend: 6-311++G(D,P)
    Number of shells: 90
    Number of basis function: 166
    Number of Cartesian functions: 171
    Spherical Harmonics?: true
    Max angular momentum: 2

  ==> DFJKGrad: Density-Fitted SCF Gradients <==

    Gradient:                    1
    J tasked:                  Yes
    K tasked:                  Yes
    wK tasked:                  No
    OpenMP threads:             32
    Integrals threads:          32
    Memory (MB):               375
    Schwarz Cutoff:          0E+00
    Fitting Condition:       1E-12

   => Auxiliary Basis Set <=

  Basis Set: (6-311++G(D,P) AUX)
    Blend: AUG-CC-PVTZ-JKFIT
    Number of shells: 262
    Number of basis function: 888
    Number of Cartesian functions: 1095
    Spherical Harmonics?: true
    Max angular momentum: 4

  ==> DFT Potential <==

   => Composite Functional: M06-2X <= 

    Hybrid M06-2X Meta-GGA XC Functional

    Y. Zhao and D. G. Truhlar,  Theor. Chem. Acc., 120, 215, 2008


    Deriv               =              1
    GGA                 =           TRUE
    Meta                =           TRUE

    Exchange Hybrid     =           TRUE
    MP2 Hybrid          =          FALSE

   => Exchange Functionals <=

    1.0000   XC_HYB_MGGA_X_M06_2X

   => Exact (HF) Exchange <=

    0.5400               HF 

   => Correlation Functionals <=

    1.0000   XC_MGGA_C_M06_2X

   => Molecular Quadrature <=

    Radial Scheme       =       TREUTLER
    Pruning Scheme      =           FLAT
    Nuclear Scheme      =       TREUTLER

    BS radius alpha     =              1
    Pruning alpha       =              1
    Radial Points       =             75
    Spherical Points    =            302
    Total Points        =         294450
    Total Blocks        =           2250
    Max Points          =            256
    Max Functions       =            158


  -Total Gradient:
     Atom            X                  Y                   Z
    ------   -----------------  -----------------  -----------------
       1       -0.007757410283    -0.005833979334     0.003425234266
       2        0.001100336262     0.001148484648    -0.001127287264
       3        0.000663838121     0.000617696386    -0.000548591602
       4        0.003475815176     0.001910707263    -0.000129507221
       5       -0.000406307910    -0.000175700036     0.000230575671
       6        0.007207045281     0.005150390278    -0.002712061603
       7       -0.000417631836    -0.000876892257     0.000694332833
       8       -0.000724957821    -0.000681089012     0.000738127809
       9       -0.001886433535    -0.001155984038     0.000899124435
      10        0.000228586467     0.000016989179    -0.000668473117
      11        0.001038471467     0.000588354349    -0.000272515281
      12       -0.002563680282    -0.001505659169    -0.000609844036
      13       -0.000028533152     0.000846479983     0.000080760535


*** tstop() called on localhost.localdomain at Wed Mar 20 14:32:54 2019
Module time:
	user time   =     596.96 seconds =       9.95 minutes
	system time =      49.45 seconds =       0.82 minutes
	total time  =         26 seconds =       0.43 minutes
Total time:
	user time   =   13637.00 seconds =     227.28 minutes
	system time =    1100.07 seconds =      18.33 minutes
	total time  =        557 seconds =       9.28 minutes

			-----------------------------------------
			 OPTKING 2.0: for geometry optimizations 
			  - R.A. King,  Bethel University        
			-----------------------------------------

	Previous internal coordinate definitions found.
	---Fragment 1 Geometry and Gradient---
	 C           0.7697795739        1.6884920029       -0.5708211834
	 H           0.1662837587        0.9714405128       -2.3948372121
	 H          -0.0465507013        3.4599149655        0.0401341843
	 C           2.9591274957        0.9097322715        0.4853544548
	 H           3.6888242479        1.8132384441        2.1738301170
	 C          -2.6862725582       -0.6573694650        1.0120109223
	 H          -1.8416854722       -2.5196089498        0.9141866859
	 H          -2.9231482442        0.1537692381        2.8861795750
	 N           4.2297658082       -1.3053165099       -0.1937262071
	 H           3.8438394546       -1.9166670943       -1.9643709312
	 H           6.1140914598       -1.2661175405        0.1183100950
	 O          -4.7062026293       -0.4318149460       -0.6140177581
	 H          -5.4951217695        1.1843460626       -0.3690283164
	            -0.0077574103       -0.0058339793        0.0034252343
	             0.0011003363        0.0011484846       -0.0011272873
	             0.0006638381        0.0006176964       -0.0005485916
	             0.0034758152        0.0019107073       -0.0001295072
	            -0.0004063079       -0.0001757000        0.0002305757
	             0.0072070453        0.0051503903       -0.0027120616
	            -0.0004176318       -0.0008768923        0.0006943328
	            -0.0007249578       -0.0006810890        0.0007381278
	            -0.0018864335       -0.0011559840        0.0008991244
	             0.0002285865        0.0000169892       -0.0006684731
	             0.0010384715        0.0005883543       -0.0002725153
	            -0.0025636803       -0.0015056592       -0.0006098440
	            -0.0000285332        0.0008464800        0.0000807605

	---Fragment 1 Intrafragment Coordinates---
	 - Coordinate -           - BOHR/RAD -       - ANG/DEG -
	 R(1,2)           =         2.050708	       1.085188
	 R(1,3)           =         2.043918	       1.081595
	 R(1,4)           =         2.552493	       1.350721
	 R(1,6)           =         4.466847	       2.363753
	 R(4,5)           =         2.049324	       1.084456
	 R(4,9)           =         2.642369	       1.398281
	 R(6,7)           =         2.047152	       1.083306
	 R(6,8)           =         2.055861	       1.087915
	 R(6,12)          =         2.602876	       1.377382
	 R(9,10)          =         1.912556	       1.012081
	 R(9,11)          =         1.910389	       1.010934
	 R(12,13)         =         1.815045	       0.960481
	 B(1,4,5)         =         2.108099	     120.785147
	 B(1,4,9)         =         2.167446	     124.185509
	 B(1,6,7)         =         1.712868	      98.140090
	 B(1,6,8)         =         1.777235	     101.828038
	 B(1,6,12)        =         1.910869	     109.484731
	 B(2,1,3)         =         2.039105	     116.832133
	 B(2,1,4)         =         2.110380	     120.915863
	 B(2,1,6)         =         1.474503	      84.482788
	 B(3,1,4)         =         2.075228	     118.901784
	 B(3,1,6)         =         1.611026	      92.304994
	 B(4,1,6)         =         1.935618	     110.902732
	 B(4,9,10)        =         1.991993	     114.132768
	 B(4,9,11)        =         1.998885	     114.527682
	 B(5,4,9)         =         1.993364	     114.211349
	 B(6,12,13)       =         1.907257	     109.277804
	 B(7,6,8)         =         2.037572	     116.744271
	 B(7,6,12)        =         1.948884	     111.662845
	 B(8,6,12)        =         2.032964	     116.480285
	 B(10,9,11)       =         1.935646	     110.904324
	 D(1,4,9,10)      =         0.423098	      24.241710
	 D(1,4,9,11)      =         2.680857	     153.601778
	 D(1,6,12,13)     =        -1.351458	     -77.432834
	 D(2,1,4,5)       =         2.992158	     171.438024
	 D(2,1,4,9)       =        -0.340843	     -19.528891
	 D(2,1,6,7)       =         1.339839	      76.767120
	 D(2,1,6,8)       =        -2.855399	    -163.602328
	 D(2,1,6,12)      =        -0.693431	     -39.730644
	 D(3,1,4,5)       =         0.222581	      12.752958
	 D(3,1,4,9)       =        -3.110420	    -178.213957
	 D(3,1,6,7)       =        -2.905832	    -166.491884
	 D(3,1,6,8)       =        -0.817885	     -46.861332
	 D(3,1,6,12)      =         1.344084	      77.010351
	 D(4,1,6,7)       =        -0.772716	     -44.273350
	 D(4,1,6,8)       =         1.315231	      75.357202
	 D(4,1,6,12)      =        -2.805985	    -160.771115
	 D(5,4,1,6)       =        -1.611261	     -92.318447
	 D(5,4,9,10)      =        -2.898666	    -166.081343
	 D(5,4,9,11)      =        -0.640907	     -36.721275
	 D(6,1,4,9)       =         1.338923	      76.714638
	 D(7,6,12,13)     =         3.053988	     174.980651
	 D(8,6,12,13)     =         0.651866	      37.349165

	Current energy   :      -248.9544816217

	Energy change for the previous step:
		Projected    :        -0.0006136028
		Actual       :        -0.0009052765

	Performing Bofill update.
	Previous computed or guess Hessian on step 1.
	Steps to be used in Hessian update: 1
	Taking PRFO optimization step.
	Maximizing along 1 lowest eigenvalue of Hessian.

 RFO min eigenvalues
 -0.000232 -0.000000 -0.000000 -0.000000 -0.000000 -0.000000 -0.000000 -0.000000
 -0.000000 -0.000000 -0.000000  0.000000  0.000000  0.000000  0.000000  0.000000
  0.000000  0.000000  0.000000  0.000000  0.000000  0.002319  0.009686  0.013647
  0.020269  0.023082  0.044871  0.051600  0.055866  0.056995  0.067241  0.090426
  0.097907  0.119643  0.134419  0.158400  0.159454  0.159975  0.160506  0.217487
  0.221349  0.222238  0.345164  0.350797  0.351441  0.352852  0.354638  0.450054
  0.451753  0.452396  0.478983  0.518381  0.535784

 RFO max eigenvalues
 -0.017810  0.002188
	|RFO target step|  :        0.3702536502
	RFO gradient       :        0.0052815317
	RFO hessian        :       -0.0123281091
	Projected Delta(E) :        0.0009766088

	Back-transformation to cartesian coordinates...
	Could not converge backtransformation.
	Using first guess instead.

	--- Internal Coordinate Step in ANG or DEG, aJ/ANG or AJ/DEG ---
	 ---------------------------------------------------------------------------
	   Coordinate                Previous        Force       Change         New 
	   ----------                --------       ------       ------       ------
	    1 R(1,2)          =      1.085188    -0.002158     0.001270     1.086458
	    2 R(1,3)          =      1.081595    -0.000853     0.000462     1.082056
	    3 R(1,4)          =      1.350721    -0.014996     0.004770     1.355491
	    4 R(1,6)          =      2.363753     0.040551    -0.133414     2.230340
	    5 R(4,5)          =      1.084456     0.000238     0.000178     1.084634
	    6 R(4,9)          =      1.398281    -0.001865     0.000520     1.398802
	    7 R(6,7)          =      1.083306    -0.004848     0.001810     1.085117
	    8 R(6,8)          =      1.087915    -0.003941     0.001763     1.089678
	    9 R(6,12)         =      1.377382    -0.018860     0.005862     1.383245
	   10 R(9,10)         =      1.012081    -0.004760     0.001625     1.013706
	   11 R(9,11)         =      1.010934    -0.008152     0.003315     1.014249
	   12 R(12,13)        =      0.960481    -0.006573     0.005855     0.966336
	   13 B(1,4,5)        =    120.785147    -0.000009    -0.141999   120.643149
	   14 B(1,4,9)        =    124.185509     0.000044    -0.357066   123.828444
	   15 B(1,6,7)        =     98.140090    -0.000039     1.109643    99.249732
	   16 B(1,6,8)        =    101.828038    -0.000026     1.021370   102.849408
	   17 B(1,6,12)       =    109.484731    -0.000142     1.450415   110.935146
	   18 B(2,1,3)        =    116.832133    -0.000002    -0.946430   115.885703
	   19 B(2,1,4)        =    120.915863     0.000026    -0.315984   120.599879
	   20 B(2,1,6)        =     84.482788    -0.000067     2.445575    86.928363
	   21 B(3,1,4)        =    118.901784     0.000033    -0.786655   118.115128
	   22 B(3,1,6)        =     92.304994     0.000007     0.882191    93.187185
	   23 B(4,1,6)        =    110.902732    -0.000100     1.550254   112.452986
	   24 B(4,9,10)       =    114.132768    -0.000001    -0.620926   113.511843
	   25 B(4,9,11)       =    114.527682     0.000054    -1.167555   113.360127
	   26 B(5,4,9)        =    114.211349    -0.000031     0.088683   114.300033
	   27 B(6,12,13)      =    109.277804     0.000033    -0.669515   108.608289
	   28 B(7,6,8)        =    116.744271     0.000034    -1.359409   115.384862
	   29 B(7,6,12)       =    111.662845     0.000044    -0.616804   111.046041
	   30 B(8,6,12)       =    116.480285     0.000073    -0.797282   115.683004
	   31 B(10,9,11)      =    110.904324     0.000008    -1.043437   109.860886
	   32 D(1,4,9,10)     =     24.241710    -0.000008     0.800453    25.042163
	   33 D(1,4,9,11)     =    153.601778     0.000006    -2.297139   151.304639
	   34 D(1,6,12,13)    =    -77.432834    -0.000004     6.606422   -70.826412
	   35 D(2,1,4,5)      =    171.438024     0.000021    -1.718246   169.719778
	   36 D(2,1,4,9)      =    -19.528891     0.000026    -4.146628   -23.675519
	   37 D(2,1,6,7)      =     76.767120    -0.000003     0.518143    77.285264
	   38 D(2,1,6,8)      =   -163.602328     0.000001    -0.253917  -163.856245
	   39 D(2,1,6,12)     =    -39.730644     0.000001     0.152240   -39.578404
	   40 D(3,1,4,5)      =     12.752958    -0.000019     3.962260    16.715218
	   41 D(3,1,4,9)      =   -178.213957    -0.000015     1.533878  -176.680079
	   42 D(3,1,6,7)      =   -166.491884    -0.000003    -0.444263  -166.936147
	   43 D(3,1,6,8)      =    -46.861332     0.000000    -1.216323   -48.077656
	   44 D(3,1,6,12)     =     77.010351     0.000001    -0.810166    76.200185
	   45 D(4,1,6,7)      =    -44.273350    -0.000001    -0.406995   -44.680345
	   46 D(4,1,6,8)      =     75.357202     0.000003    -1.179056    74.178146
	   47 D(4,1,6,12)     =   -160.771115     0.000003    -0.772898  -161.544013
	   48 D(5,4,1,6)      =    -92.318447    -0.000010     2.235363   -90.083084
	   49 D(5,4,9,10)     =   -166.081343    -0.000003    -1.508778  -167.590121
	   50 D(5,4,9,11)     =    -36.721275     0.000011    -4.606370   -41.327646
	   51 D(6,1,4,9)      =     76.714638    -0.000005    -0.193019    76.521619
	   52 D(7,6,12,13)    =    174.980651     0.000019     4.826654   179.807304
	   53 D(8,6,12,13)    =     37.349165    -0.000024     8.451857    45.801022
	 ---------------------------------------------------------------------------
	Successfully symmetrized geometry.

  ==> Convergence Check <==

  Measures of convergence in internal coordinates in au.
  Criteria marked as inactive (o), active & met (*), and active & unmet ( ).
  ---------------------------------------------------------------------------------------------
   Step     Total Energy     Delta E     MAX Force     RMS Force      MAX Disp      RMS Disp   
  ---------------------------------------------------------------------------------------------
    Convergence Criteria    1.00e-06 *    3.00e-04 *             o    1.20e-03 *             o
  ---------------------------------------------------------------------------------------------
      2    -248.95448162   -9.05e-04      4.92e-03      1.02e-03 o    2.52e-01      5.07e-02 o  ~
  ---------------------------------------------------------------------------------------------

	Writing optimization data to binary file.
	Structure for next step:
	Cartesian Geometry (in Angstrom)
	    C     0.3542278148   0.8469543148  -0.2768981070
	    H     0.0607520906   0.4941222931  -1.2616688451
	    H    -0.0685786844   1.7942404121   0.0308841206
	    C     1.5359940809   0.4677152557   0.2680435630
	    H     1.9070242876   0.9432840879   1.1694873112
	    C    -1.3674743955  -0.3232374466   0.5236074873
	    H    -0.9366118446  -1.3182651624   0.4817070153
	    H    -1.4959225357   0.0884384061   1.5243183712
	    N     2.2213954745  -0.6972707819  -0.0920662937
	    H     2.0049395456  -1.0208748126  -1.0280297952
	    H     3.2264062073  -0.6246119464   0.0235881006
	    O    -2.4652190920  -0.2216732022  -0.3118611938
	    H    -2.8217368320   0.6740045188  -0.2450666680
			--------------------------
			 OPTKING Finished Execution 
			--------------------------

    Structure for next step:
    Molecular point group: c1
    Full point group: C1

    Geometry (in Angstrom), charge = 0, multiplicity = 2:

    C            0.356397383626     0.852004134078    -0.285003507780
    H            0.062921659363     0.499172112410    -1.269774245916
    H           -0.066409115624     1.799290231423     0.022778719791
    C            1.538163649722     0.472765074978     0.259938162180
    H            1.909193856444     0.948333907180     1.161381910376
    C           -1.365304826653    -0.318187627248     0.515502086560
    H           -0.934442275786    -1.313215343114     0.473601614512
    H           -1.493752966945     0.093488225468     1.516212970388
    N            2.223565043290    -0.692220962535    -0.100171694438
    H            2.007109114418    -1.015824993249    -1.036135196027
    H            3.228575776132    -0.619562127091     0.015482699805
    O           -2.463049523160    -0.216623382837    -0.319966594547
    H           -2.819567263248     0.679054338094    -0.253172068750

gradient() will perform analytic gradient computation.

*** tstart() called on localhost.localdomain
*** at Wed Mar 20 14:32:54 2019

   => Loading Basis Set <=

    Name: 6-311++G(D,P)
    Role: ORBITAL
    Keyword: BASIS
    atoms 1, 4, 6                entry C          line   119 file /root/psi4conda/share/psi4/basis/6-311ppg_d_p_.gbs 
    atoms 2-3, 5, 7-8, 10-11, 13 entry H          line    42 file /root/psi4conda/share/psi4/basis/6-311ppg_d_p_.gbs 
    atoms 9                      entry N          line   140 file /root/psi4conda/share/psi4/basis/6-311ppg_d_p_.gbs 
    atoms 12                     entry O          line   161 file /root/psi4conda/share/psi4/basis/6-311ppg_d_p_.gbs 


         ---------------------------------------------------------
                                   SCF
            by Justin Turney, Rob Parrish, Andy Simmonett
                             and Daniel Smith
                              UKS Reference
                       32 Threads,    500 MiB Core
         ---------------------------------------------------------

  ==> Geometry <==

    Molecular point group: c1
    Full point group: C1

    Geometry (in Angstrom), charge = 0, multiplicity = 2:

       Center              X                  Y                   Z               Mass       
    ------------   -----------------  -----------------  -----------------  -----------------
         C            0.356397383626     0.852004134078    -0.285003507780    12.000000000000
         H            0.062921659363     0.499172112410    -1.269774245916     1.007825032070
         H           -0.066409115624     1.799290231423     0.022778719791     1.007825032070
         C            1.538163649722     0.472765074978     0.259938162180    12.000000000000
         H            1.909193856444     0.948333907180     1.161381910376     1.007825032070
         C           -1.365304826653    -0.318187627248     0.515502086560    12.000000000000
         H           -0.934442275786    -1.313215343114     0.473601614512     1.007825032070
         H           -1.493752966945     0.093488225468     1.516212970388     1.007825032070
         N            2.223565043290    -0.692220962535    -0.100171694438    14.003074004780
         H            2.007109114418    -1.015824993249    -1.036135196027     1.007825032070
         H            3.228575776132    -0.619562127091     0.015482699805     1.007825032070
         O           -2.463049523160    -0.216623382837    -0.319966594547    15.994914619560
         H           -2.819567263248     0.679054338094    -0.253172068750     1.007825032070

  Running in c1 symmetry.

  Rotational constants: A =      0.40607  B =      0.06450  C =      0.06105 [cm^-1]
  Rotational constants: A =  12173.74902  B =   1933.61468  C =   1830.33044 [MHz]
  Nuclear repulsion =  169.520186336459432

  Charge       = 0
  Multiplicity = 2
  Electrons    = 41
  Nalpha       = 21
  Nbeta        = 20

  ==> Algorithm <==

  SCF Algorithm Type is DF.
  DIIS enabled.
  MOM disabled.
  Fractional occupation disabled.
  Guess Type is READ.
  Energy threshold   = 1.00e-08
  Density threshold  = 1.00e-08
  Integral threshold = 0.00e+00

  ==> Primary Basis <==

  Basis Set: 6-311++G(D,P)
    Blend: 6-311++G(D,P)
    Number of shells: 90
    Number of basis function: 166
    Number of Cartesian functions: 171
    Spherical Harmonics?: true
    Max angular momentum: 2

  ==> DFT Potential <==

   => Composite Functional: M06-2X <= 

    Hybrid M06-2X Meta-GGA XC Functional

    Y. Zhao and D. G. Truhlar,  Theor. Chem. Acc., 120, 215, 2008


    Deriv               =              1
    GGA                 =           TRUE
    Meta                =           TRUE

[...]
         H            1.939528468975     0.964648429927     1.137708097518     1.007825032070
         C           -1.371766322174    -0.345435077790     0.532999320234    12.000000000000
         H           -0.919408451984    -1.326655050947     0.459473605321     1.007825032070
         H           -1.499607930294     0.064486175883     1.532049438614     1.007825032070
         N            2.196213775589    -0.698686332928    -0.103731577457    14.003074004780
         H            1.993219188852    -1.028033544183    -1.037688054610     1.007825032070
         H            3.186294637027    -0.715896941795     0.090052130986     1.007825032070
         O           -2.433874774404    -0.209614729286    -0.331024741996    15.994914619560
         H           -2.880197329972     0.622940781557    -0.162223084672     1.007825032070

  Nuclear repulsion =  169.547296340775745

  ==> Basis Set <==

  Basis Set: 6-311++G(D,P)
    Blend: 6-311++G(D,P)
    Number of shells: 90
    Number of basis function: 166
    Number of Cartesian functions: 171
    Spherical Harmonics?: true
    Max angular momentum: 2

  ==> DFJKGrad: Density-Fitted SCF Gradients <==

    Gradient:                    1
    J tasked:                  Yes
    K tasked:                  Yes
    wK tasked:                  No
    OpenMP threads:             32
    Integrals threads:          32
    Memory (MB):               375
    Schwarz Cutoff:          0E+00
    Fitting Condition:       1E-12

   => Auxiliary Basis Set <=

  Basis Set: (6-311++G(D,P) AUX)
    Blend: AUG-CC-PVTZ-JKFIT
    Number of shells: 262
    Number of basis function: 888
    Number of Cartesian functions: 1095
    Spherical Harmonics?: true
    Max angular momentum: 4

  ==> DFT Potential <==

   => Composite Functional: M06-2X <= 

    Hybrid M06-2X Meta-GGA XC Functional

    Y. Zhao and D. G. Truhlar,  Theor. Chem. Acc., 120, 215, 2008


    Deriv               =              1
    GGA                 =           TRUE
    Meta                =           TRUE

    Exchange Hybrid     =           TRUE
    MP2 Hybrid          =          FALSE

   => Exchange Functionals <=

    1.0000   XC_HYB_MGGA_X_M06_2X

   => Exact (HF) Exchange <=

    0.5400               HF 

   => Correlation Functionals <=

    1.0000   XC_MGGA_C_M06_2X

   => Molecular Quadrature <=

    Radial Scheme       =       TREUTLER
    Pruning Scheme      =           FLAT
    Nuclear Scheme      =       TREUTLER

    BS radius alpha     =              1
    Pruning alpha       =              1
    Radial Points       =             75
    Spherical Points    =            302
    Total Points        =         294450
    Total Blocks        =           2251
    Max Points          =            256
    Max Functions       =            160


  -Total Gradient:
     Atom            X                  Y                   Z
    ------   -----------------  -----------------  -----------------
       1        0.000306099856    -0.000055562981     0.000045314948
       2       -0.000007340818    -0.000078728483     0.000009287166
       3       -0.000189004264    -0.000076450292    -0.000001885788
       4       -0.000156897271     0.000233137070    -0.000013839482
       5        0.000013207640     0.000036539258     0.000004314377
       6       -0.000080352133     0.000141358896    -0.000089243704
       7        0.000052606931    -0.000098926974    -0.000048130618
       8        0.000033270547     0.000093880025     0.000109167545
       9        0.000033692657    -0.000198642676     0.000003105743
      10        0.000046377752     0.000034731064    -0.000059355249
      11        0.000051899113     0.000052241676     0.000019012081
      12       -0.000038155810    -0.000121307000    -0.000024813057
      13       -0.000101796029     0.000039106471     0.000063165134


*** tstop() called on localhost.localdomain at Wed Mar 20 14:59:59 2019
Module time:
	user time   =     541.11 seconds =       9.02 minutes
	system time =      41.90 seconds =       0.70 minutes
	total time  =         23 seconds =       0.38 minutes
Total time:
	user time   =   53316.43 seconds =     888.61 minutes
	system time =    4293.90 seconds =      71.56 minutes
	total time  =       2182 seconds =      36.37 minutes

			-----------------------------------------
			 OPTKING 2.0: for geometry optimizations 
			  - R.A. King,  Bethel University        
			-----------------------------------------

	Previous internal coordinate definitions found.
	---Fragment 1 Geometry and Gradient---
	 C           0.6894090796        1.6736146093       -0.5544179216
	 H           0.0811739896        0.9507231859       -2.3746521280
	 H          -0.1093143362        3.4607242836        0.0343397822
	 C           2.9039067372        0.9024998320        0.4857954462
	 H           3.6651776333        1.8229213471        2.1499567235
	 C          -2.5922626672       -0.6527776937        1.0072227443
	 H          -1.7374301785       -2.5070147191        0.8682792793
	 H          -2.8338482950        0.1218612118        2.8951538610
	 N           4.1502425651       -1.3203258220       -0.1960242727
	 H           3.7666383897       -1.9427018539       -1.9609462346
	 H           6.0212242427       -1.3528491594        0.1701738652
	 O          -4.5993567654       -0.3961144318       -0.6255461056
	 H          -5.4427841623        1.1771874741       -0.3065572025
	             0.0003060999       -0.0000555630        0.0000453149
	            -0.0000073408       -0.0000787285        0.0000092872
	            -0.0001890043       -0.0000764503       -0.0000018858
	            -0.0001568973        0.0002331371       -0.0000138395
	             0.0000132076        0.0000365393        0.0000043144
	            -0.0000803521        0.0001413589       -0.0000892437
	             0.0000526069       -0.0000989270       -0.0000481306
	             0.0000332705        0.0000938800        0.0001091675
	             0.0000336927       -0.0001986427        0.0000031057
	             0.0000463778        0.0000347311       -0.0000593552
	             0.0000518991        0.0000522417        0.0000190121
	            -0.0000381558       -0.0001213070       -0.0000248131
	            -0.0001017960        0.0000391065        0.0000631651

	---Fragment 1 Intrafragment Coordinates---
	 - Coordinate -           - BOHR/RAD -       - ANG/DEG -
	 R(1,2)           =         2.050799	       1.085236
	 R(1,3)           =         2.044103	       1.081693
	 R(1,4)           =         2.565280	       1.357488
	 R(1,6)           =         4.315112	       2.283459
	 R(4,5)           =         2.048449	       1.083992
	 R(4,9)           =         2.638027	       1.395984
	 R(6,7)           =         2.046519	       1.082971
	 R(6,8)           =         2.054924	       1.087419
	 R(6,12)          =         2.600046	       1.375885
	 R(9,10)          =         1.910354	       1.010916
	 R(9,11)          =         1.906759	       1.009014
	 R(12,13)         =         1.813395	       0.959607
	 B(1,4,5)         =         2.112008	     121.009157
	 B(1,4,9)         =         2.160756	     123.802209
	 B(1,6,7)         =         1.717561	      98.408987
	 B(1,6,8)         =         1.791243	     102.630690
	 B(1,6,12)        =         1.882399	     107.853545
	 B(2,1,3)         =         2.035248	     116.611103
	 B(2,1,4)         =         2.105957	     120.662436
	 B(2,1,6)         =         1.476276	      84.584387
	 B(3,1,4)         =         2.075244	     118.902726
	 B(3,1,6)         =         1.640797	      94.010763
	 B(4,1,6)         =         1.925918	     110.346946
	 B(4,9,10)        =         2.002509	     114.735342
	 B(4,9,11)        =         2.013429	     115.360981
	 B(5,4,9)         =         1.996542	     114.393432
	 B(6,12,13)       =         1.911573	     109.525042
	 B(7,6,8)         =         2.040959	     116.938319
	 B(7,6,12)        =         1.948995	     111.669214
	 B(8,6,12)        =         2.036419	     116.678202
	 B(10,9,11)       =         1.948632	     111.648399
	 D(1,4,9,10)      =         0.440043	      25.212588
	 D(1,4,9,11)      =         2.742177	     157.115150
	 D(1,6,12,13)     =        -1.399599	     -80.191130
	 D(2,1,4,5)       =         2.974145	     170.405978
	 D(2,1,4,9)       =        -0.355828	     -20.387423
	 D(2,1,6,7)       =         1.322581	      75.778321
	 D(2,1,6,8)       =        -2.863391	    -164.060234
	 D(2,1,6,12)      =        -0.703546	     -40.310201
	 D(3,1,4,5)       =         0.229752	      13.163794
	 D(3,1,4,9)       =        -3.100221	    -177.629607
	 D(3,1,6,7)       =        -2.929305	    -167.836834
	 D(3,1,6,8)       =        -0.832092	     -47.675388
	 D(3,1,6,12)      =         1.327753	      76.074645
	 D(4,1,6,7)       =        -0.784794	     -44.965405
	 D(4,1,6,8)       =         1.312418	      75.196040
	 D(4,1,6,12)      =        -2.810921	    -161.053927
	 D(5,4,1,6)       =        -1.635221	     -93.691275
	 D(5,4,9,10)      =        -2.878713	    -164.938079
	 D(5,4,9,11)      =        -0.576579	     -33.035518
	 D(6,1,4,9)       =         1.317991	      75.515324
	 D(7,6,12,13)     =         3.015116	     172.753425
	 D(8,6,12,13)     =         0.603478	      34.576746

	Current energy   :      -248.9541695021

	Energy change for the previous step:
		Projected    :        -0.0000064283
		Actual       :         0.0000000491

	Performing Bofill update.
	Previous computed or guess Hessian on step 1.
	Steps to be used in Hessian update: 9 8
	Taking PRFO optimization step.
	Maximizing along 1 lowest eigenvalue of Hessian.

 RFO min eigenvalues
 -0.000005 -0.000000 -0.000000 -0.000000 -0.000000 -0.000000 -0.000000 -0.000000
 -0.000000 -0.000000 -0.000000  0.000000  0.000000  0.000000  0.000000  0.000000
  0.000000  0.000000  0.000000  0.000000  0.000000  0.001580  0.005066  0.010075
  0.019514  0.022500  0.037848  0.050833  0.053991  0.055812  0.066079  0.090224
  0.096976  0.118079  0.133573  0.158283  0.158959  0.159785  0.160492  0.203957
  0.220024  0.221483  0.345121  0.350743  0.351438  0.352807  0.354654  0.449417
  0.451505  0.452429  0.477584  0.511804  0.535776

 RFO max eigenvalues
 -0.035815  0.000000
	|RFO target step|  :        0.0374965207
	RFO gradient       :       -0.0001336538
	RFO hessian        :        0.0035593578
	Projected Delta(E) :       -0.0000025058

	Back-transformation to cartesian coordinates...
	Could not converge backtransformation.
	Using first guess instead.

	--- Internal Coordinate Step in ANG or DEG, aJ/ANG or AJ/DEG ---
	 ---------------------------------------------------------------------------
	   Coordinate                Previous        Force       Change         New 
	   ----------                --------       ------       ------       ------
	    1 R(1,2)          =      1.085236    -0.000077    -0.000008     1.085228
	    2 R(1,3)          =      1.081693    -0.000056    -0.000025     1.081668
	    3 R(1,4)          =      1.357488     0.000388     0.000014     1.357502
	    4 R(1,6)          =      2.283459    -0.000195     0.000038     2.283497
	    5 R(4,5)          =      1.083992    -0.000211    -0.000037     1.083955
	    6 R(4,9)          =      1.395984    -0.001709    -0.000222     1.395762
	    7 R(6,7)          =      1.082971    -0.000879    -0.000153     1.082818
	    8 R(6,8)          =      1.087419    -0.001040    -0.000191     1.087228
	    9 R(6,12)         =      1.375885    -0.000678    -0.000130     1.375755
	   10 R(9,10)         =      1.010916    -0.000382    -0.000055     1.010861
	   11 R(9,11)         =      1.009014    -0.000401    -0.000050     1.008964
	   12 R(12,13)        =      0.959607    -0.000953    -0.000106     0.959502
	   13 B(1,4,5)        =    121.009157     0.000001     0.000977   121.010134
	   14 B(1,4,9)        =    123.802209    -0.000004    -0.009213   123.792996
	   15 B(1,6,7)        =     98.408987     0.000007    -0.060429    98.348558
	   16 B(1,6,8)        =    102.630690     0.000009     0.049954   102.680644
	   17 B(1,6,12)       =    107.853545    -0.000020    -0.063584   107.789961
	   18 B(2,1,3)        =    116.611103     0.000001     0.016401   116.627504
	   19 B(2,1,4)        =    120.662436     0.000001    -0.002200   120.660236
	   20 B(2,1,6)        =     84.584387     0.000003    -0.062763    84.521624
	   21 B(3,1,4)        =    118.902726    -0.000004    -0.018979   118.883746
	   22 B(3,1,6)        =     94.010763     0.000020     0.114354    94.125117
	   23 B(4,1,6)        =    110.346946    -0.000018    -0.034680   110.312267
	   24 B(4,9,10)       =    114.735342     0.000001     0.028745   114.764088
	   25 B(4,9,11)       =    115.360981     0.000004     0.042293   115.403274
	   26 B(5,4,9)        =    114.393432     0.000002     0.005241   114.398674
	   27 B(6,12,13)      =    109.525042    -0.000000     0.010307   109.535348
	   28 B(7,6,8)        =    116.938319    -0.000004     0.020676   116.958995
	   29 B(7,6,12)       =    111.669214     0.000003     0.019761   111.688975
	   30 B(8,6,12)       =    116.678202     0.000004     0.010789   116.688991
	   31 B(10,9,11)      =    111.648399     0.000000     0.040064   111.688463
	   32 D(1,4,9,10)     =     25.212588    -0.000001    -0.122378    25.090211
	   33 D(1,4,9,11)     =    157.115150     0.000000     0.013193   157.128343
	   34 D(1,6,12,13)    =    -80.191130     0.000001    -0.118182   -80.309312
	   35 D(2,1,4,5)      =    170.405978    -0.000000    -0.074609   170.331369
	   36 D(2,1,4,9)      =    -20.387423    -0.000000    -0.094151   -20.481574
	   37 D(2,1,6,7)      =     75.778321     0.000000     0.675496    76.453816
	   38 D(2,1,6,8)      =   -164.060234     0.000001     0.691743  -163.368491
	   39 D(2,1,6,12)     =    -40.310201     0.000001     0.700204   -39.609998
	   40 D(3,1,4,5)      =     13.163794     0.000001    -0.064639    13.099154
	   41 D(3,1,4,9)      =   -177.629607     0.000000    -0.084181  -177.713788
	   42 D(3,1,6,7)      =   -167.836834     0.000000     0.681828  -167.155005
	   43 D(3,1,6,8)      =    -47.675388     0.000001     0.698076   -46.977312
	   44 D(3,1,6,12)     =     76.074645     0.000001     0.706536    76.781181
	   45 D(4,1,6,7)      =    -44.965405     0.000000     0.705139   -44.260266
	   46 D(4,1,6,8)      =     75.196040     0.000000     0.721387    75.917427
	   47 D(4,1,6,12)     =   -161.053927     0.000000     0.729847  -160.324080
	   48 D(5,4,1,6)      =    -93.691275    -0.000002    -0.175412   -93.866687
	   49 D(5,4,9,10)     =   -164.938079    -0.000001    -0.141051  -165.079130
	   50 D(5,4,9,11)     =    -33.035518    -0.000000    -0.005480   -33.040997
	   51 D(6,1,4,9)      =     75.515324    -0.000002    -0.194953    75.320371
	   52 D(7,6,12,13)    =    172.753425     0.000001    -0.023874   172.729551
	   53 D(8,6,12,13)    =     34.576746     0.000000    -0.093382    34.483364
	 ---------------------------------------------------------------------------
	Successfully symmetrized geometry.

  ==> Convergence Check <==

  Measures of convergence in internal coordinates in au.
  Criteria marked as inactive (o), active & met (*), and active & unmet ( ).
  ---------------------------------------------------------------------------------------------
   Step     Total Energy     Delta E     MAX Force     RMS Force      MAX Disp      RMS Disp   
  ---------------------------------------------------------------------------------------------
    Convergence Criteria    1.00e-06 *    3.00e-04 *             o    1.20e-03 *             o
  ---------------------------------------------------------------------------------------------
     10    -248.95416950    4.91e-08 *    2.61e-04 *    8.37e-05 o    1.27e-02      5.15e-03 o  ~
  ---------------------------------------------------------------------------------------------


  **** Optimization is complete! (in 10 steps) ****

  ==> Optimization Summary <==

  Measures of convergence in internal coordinates in au.
  --------------------------------------------------------------------------------------------------------------- ~
   Step         Total Energy             Delta E       MAX Force       RMS Force        MAX Disp        RMS Disp  ~
  --------------------------------------------------------------------------------------------------------------- ~
      1    -248.953576345170   -248.953576345170      0.01287919      0.00269742      0.04451775      0.01476515  ~
      2    -248.954481621680     -0.000905276510      0.00492199      0.00101690      0.25211498      0.05070456  ~
      3    -248.953762519909      0.000719101771      0.00994478      0.00218288      0.09586872      0.02426040  ~
      4    -248.953960044236     -0.000197524328      0.00199148      0.00058124      0.03079325      0.01310919  ~
      5    -248.954063810108     -0.000103765871      0.00100731      0.00029015      0.03288286      0.01074634  ~
      6    -248.954120068226     -0.000056258118      0.00086901      0.00022721      0.03497293      0.00932894  ~
      7    -248.954146919852     -0.000026851626      0.00059955      0.00012952      0.02195493      0.00595025  ~
      8    -248.954159948809     -0.000013028957      0.00037425      0.00009124      0.02240103      0.00985586  ~
      9    -248.954169551169     -0.000009602360      0.00028781      0.00009972      0.02522838      0.01049703  ~
     10    -248.954169502081      0.000000049088      0.00026102      0.00008373      0.01273824      0.00515061  ~
  --------------------------------------------------------------------------------------------------------------- ~

	Writing optimization data to binary file.
	Final energy is   -248.9541695020812
	Final (previous) structure:
	Cartesian Geometry (in Angstrom)
	    C     0.3648195723   0.8856387072  -0.2933853282
	    H     0.0429554252   0.5031010416  -1.2566117844
	    H    -0.0578466553   1.8313364161   0.0181718301
	    C     1.5366812612   0.4775823419   0.2570718782
	    H     1.9395284690   0.9646484299   1.1377080975
	    C    -1.3717663222  -0.3454350778   0.5329993202
	    H    -0.9194084520  -1.3266550509   0.4594736053
	    H    -1.4996079303   0.0644861759   1.5320494386
	    N     2.1962137756  -0.6986863329  -0.1037315775
	    H     1.9932191889  -1.0280335442  -1.0376880546
	    H     3.1862946370  -0.7158969418   0.0900521310
	    O    -2.4338747744  -0.2096147293  -0.3310247420
	    H    -2.8801973300   0.6229407816  -0.1622230847
	Saving final (previous) structure.
	Removing binary optimization data file.
			--------------------------
			 OPTKING Finished Execution 
			--------------------------

    Final optimized geometry and variables:
    Molecular point group: c1
    Full point group: C1

    Geometry (in Angstrom), charge = 0, multiplicity = 2:

    C            0.364819572304     0.885638707205    -0.293385328155
    H            0.042955425240     0.503101041630    -1.256611784445
    H           -0.057846655277     1.831336416094     0.018171830111
    C            1.536681261217     0.477582341863     0.257071878153
    H            1.939528468975     0.964648429927     1.137708097518
    C           -1.371766322174    -0.345435077790     0.532999320234
    H           -0.919408451984    -1.326655050947     0.459473605321
    H           -1.499607930294     0.064486175883     1.532049438614
    N            2.196213775589    -0.698686332928    -0.103731577457
    H            1.993219188852    -1.028033544183    -1.037688054610
    H            3.186294637027    -0.715896941795     0.090052130986
    O           -2.433874774404    -0.209614729286    -0.331024741996
    H           -2.880197329972     0.622940781557    -0.162223084672

	Removing binary optimization data file.
	Cleaning optimization helper files.

    Psi4 stopped on: Wednesday, 20 March 2019 02:59PM
    Psi4 wall time for execution: 0:36:22.66

*** Psi4 exiting successfully. Buy a developer a beer!
