
    -----------------------------------------------------------------------
          Psi4: An Open-Source Ab Initio Electronic Structure Package
                               Psi4 1.2.1 release

                         Git: Rev {HEAD} 406f4de 


    R. M. Parrish, L. A. Burns, D. G. A. Smith, A. C. Simmonett,
    A. E. DePrince III, E. G. Hohenstein, U. Bozkaya, A. Yu. Sokolov,
    R. Di Remigio, R. M. Richard, J. F. Gonthier, A. M. James,
    H. R. McAlexander, A. Kumar, M. Saitow, X. Wang, B. P. Pritchard,
    P. Verma, H. F. Schaefer III, K. Patkowski, R. A. King, E. F. Valeev,
    F. A. Evangelista, J. M. Turney, T. D. Crawford, and C. D. Sherrill,
    J. Chem. Theory Comput. 13(7) pp 3185--3197 (2017).
    (doi: 10.1021/acs.jctc.7b00174)


                         Additional Contributions by
    P. Kraus, H. Kruse, M. H. Lechner, M. C. Schieber, and R. A. Shaw

    -----------------------------------------------------------------------


    Psi4 started on: Tuesday, 19 March 2019 01:08PM

    Process ID: 9370
    Host:       localhost.localdomain
    PSIDATADIR: /root/psi4conda/share/psi4
    Memory:     500.0 MiB
    Threads:    1
    
  ==> Input File <==

--------------------------------------------------------------------------
molecule{
0 1
 C    0.046058198010    0.114213216157   -1.177786976883
 O   -1.017614360712   -0.394230565245   -1.898519371293
CL    1.424670873455    0.382760696912    1.125805667520
CL   -1.493198526182    0.335018457405    1.064154353267
 H    0.828913659389    3.129754812052   -2.137712973256
 C    1.106208371954    2.090065329129   -1.977265400680
 H    1.223330758228    1.594646423657   -2.945341086294
 H    2.045110310176    2.045228800423   -1.418139293883
 O    0.054128080929    1.500076366498   -1.228770276278
 H   -1.781779486389    0.164178230139   -1.715900309538
 C   -0.010189400414   -0.300063287015    0.324616389208
CL    0.022884959217   -2.067430225731    0.494282483373
 H    0.960814278522   -0.328239835404   -1.585121615073

}

set{
   basis 6-311++G(d,p)
   freeze_core True
}


set_num_threads(16)
optimize('m06-2x')
--------------------------------------------------------------------------
  Threads set to 16 by Python driver.
gradient() will perform analytic gradient computation.

*** tstart() called on localhost.localdomain
*** at Tue Mar 19 13:08:10 2019

   => Loading Basis Set <=

    Name: 6-311++G(D,P)
    Role: ORBITAL
    Keyword: BASIS
    atoms 1, 6, 11       entry C          line   119 file /root/psi4conda/share/psi4/basis/6-311ppg_d_p_.gbs 
    atoms 2, 9           entry O          line   161 file /root/psi4conda/share/psi4/basis/6-311ppg_d_p_.gbs 
    atoms 3-4, 12        entry CL         line   458 file /root/psi4conda/share/psi4/basis/6-311ppg_d_p_.gbs 
    atoms 5, 7-8, 10, 13 entry H          line    42 file /root/psi4conda/share/psi4/basis/6-311ppg_d_p_.gbs 


         ---------------------------------------------------------
                                   SCF
            by Justin Turney, Rob Parrish, Andy Simmonett
                             and Daniel Smith
                              RKS Reference
                       16 Threads,    500 MiB Core
         ---------------------------------------------------------

  ==> Geometry <==

    Molecular point group: c1
    Full point group: C1

    Geometry (in Angstrom), charge = 0, multiplicity = 1:

       Center              X                  Y                   Z               Mass       
    ------------   -----------------  -----------------  -----------------  -----------------
         C            0.046058198010     0.114213216157    -1.177786976883    12.000000000000
         O           -1.017614360712    -0.394230565245    -1.898519371293    15.994914619560
         CL           1.424670873455     0.382760696912     1.125805667520    34.968852682000
         CL          -1.493198526182     0.335018457405     1.064154353267    34.968852682000
         H            0.828913659389     3.129754812052    -2.137712973256     1.007825032070
         C            1.106208371954     2.090065329129    -1.977265400680    12.000000000000
         H            1.223330758228     1.594646423657    -2.945341086294     1.007825032070
         H            2.045110310176     2.045228800423    -1.418139293883     1.007825032070
         O            0.054128080929     1.500076366498    -1.228770276278    15.994914619560
         H           -1.781779486389     0.164178230139    -1.715900309538     1.007825032070
         C           -0.010189400414    -0.300063287015     0.324616389208    12.000000000000
         CL           0.022884959217    -2.067430225731     0.494282483373    34.968852682000
         H            0.960814278522    -0.328239835404    -1.585121615073     1.007825032070

  Running in c1 symmetry.

  Rotational constants: A =      0.04742  B =      0.03291  C =      0.02964 [cm^-1]
  Rotational constants: A =   1421.60061  B =    986.76647  C =    888.48924 [MHz]
  Nuclear repulsion =  682.564689321747551

  Charge       = 0
  Multiplicity = 1
  Electrons    = 90
  Nalpha       = 45
  Nbeta        = 45

  ==> Algorithm <==

  SCF Algorithm Type is DF.
  DIIS enabled.
  MOM disabled.
  Fractional occupation disabled.
  Guess Type is SAD.
  Energy threshold   = 1.00e-08
  Density threshold  = 1.00e-08
  Integral threshold = 0.00e+00

  ==> Primary Basis <==

  Basis Set: 6-311++G(D,P)
    Blend: 6-311++G(D,P)
    Number of shells: 117
    Number of basis function: 235
    Number of Cartesian functions: 243
    Spherical Harmonics?: true
    Max angular momentum: 2

  ==> DFT Potential <==

   => Composite Functional: M06-2X <= 

    Hybrid M06-2X Meta-GGA XC Functional

    Y. Zhao and D. G. Truhlar,  Theor. Chem. Acc., 120, 215, 2008


    Deriv               =              1
    GGA                 =           TRUE
    Meta                =           TRUE

    Exchange Hybrid     =           TRUE
    MP2 Hybrid          =          FALSE

   => Exchange Functionals <=

    1.0000   XC_HYB_MGGA_X_M06_2X

   => Exact (HF) Exchange <=

    0.5400               HF 

   => Correlation Functionals <=

    1.0000   XC_MGGA_C_M06_2X

   => Molecular Quadrature <=

    Radial Scheme       =       TREUTLER
    Pruning Scheme      =           FLAT
    Nuclear Scheme      =       TREUTLER

    BS radius alpha     =              1
    Pruning alpha       =              1
    Radial Points       =             75
    Spherical Points    =            302
    Total Points        =         294161
    Total Blocks        =           2260
    Max Points          =            256
    Max Functions       =            207

   => Loading Basis Set <=

    Name: (6-311++G(D,P) AUX)
    Role: JKFIT
    Keyword: DF_BASIS_SCF
    atoms 1, 6, 11       entry C          line   162 file /root/psi4conda/share/psi4/basis/aug-cc-pvtz-jkfit.gbs 
    atoms 2, 9           entry O          line   286 file /root/psi4conda/share/psi4/basis/aug-cc-pvtz-jkfit.gbs 
    atoms 3-4, 12        entry CL         line   816 file /root/psi4conda/share/psi4/basis/aug-cc-pvtz-jkfit.gbs 
    atoms 5, 7-8, 10, 13 entry H          line    70 file /root/psi4conda/share/psi4/basis/aug-cc-pvtz-jkfit.gbs 

  ==> Pre-Iterations <==

   -------------------------------------------------------
    Irrep   Nso     Nmo     Nalpha   Nbeta   Ndocc  Nsocc
   -------------------------------------------------------
     A        235     235       0       0       0       0
   -------------------------------------------------------
    Total     235     235      45      45      45       0
   -------------------------------------------------------

  ==> Integral Setup <==

  ==> DiskDFJK: Density-Fitted J/K Matrices <==

    J tasked:                  Yes
    K tasked:                  Yes
    wK tasked:                  No
    OpenMP threads:             16
    Integrals threads:          16
    Memory (MB):               375
    Algorithm:                Core
    Integral Cache:           NONE
    Schwarz Cutoff:          1E-12
    Fitting Condition:       1E-12

   => Auxiliary Basis Set <=

  Basis Set: (6-311++G(D,P) AUX)
    Blend: AUG-CC-PVTZ-JKFIT
    Number of shells: 346
    Number of basis function: 1188
    Number of Cartesian functions: 1470
    Spherical Harmonics?: true
    Max angular momentum: 4

  Minimum eigenvalue in the overlap matrix is 1.7788371494E-05.
  Using Symmetric Orthogonalization.

  SCF Guess: Superposition of Atomic Densities via on-the-fly atomic UHF.

  ==> Iterations <==

                           Total Energy        Delta E     RMS |[F,P]|

   @DF-RKS iter   0: -1650.33143859888196   -1.65033e+03   4.14188e-02 
   @DF-RKS iter   1: -1648.15566596300869    2.17577e+00   5.82524e-03 
   @DF-RKS iter   2: -1648.09385860576890    6.18074e-02   1.25535e-02 DIIS
   @DF-RKS iter   3: -1648.31248823267583   -2.18630e-01   1.55455e-03 DIIS
   @DF-RKS iter   4: -1648.31653243888331   -4.04421e-03   6.25675e-04 DIIS
   @DF-RKS iter   5: -1648.31714944878127   -6.17010e-04   2.15670e-04 DIIS
   @DF-RKS iter   6: -1648.31721685330876   -6.74045e-05   5.37799e-05 DIIS
   @DF-RKS iter   7: -1648.31722180270594   -4.94940e-06   1.70650e-05 DIIS
   @DF-RKS iter   8: -1648.31722231088838   -5.08182e-07   4.35706e-06 DIIS
   @DF-RKS iter   9: -1648.31722237057170   -5.96833e-08   1.12025e-06 DIIS
   @DF-RKS iter  10: -1648.31722237709710   -6.52540e-09   3.75374e-07 DIIS
   @DF-RKS iter  11: -1648.31722237772283   -6.25732e-10   1.31354e-07 DIIS
   @DF-RKS iter  12: -1648.31722237776580   -4.29736e-11   3.05304e-08 DIIS
   @DF-RKS iter  13: -1648.31722237776921   -3.41061e-12   1.42271e-08 DIIS
   @DF-RKS iter  14: -1648.31722237777149   -2.27374e-12   3.56421e-09 DIIS

  ==> Post-Iterations <==

    Orbital Energies [Eh]
    ---------------------

    Doubly Occupied:                                                      

       1A   -102.698048     2A   -102.697789     3A   -102.696250  
       4A    -19.659533     5A    -19.655162     6A    -10.733257  
       7A    -10.686372     8A    -10.602700     9A     -9.840800  
      10A     -9.840601    11A     -9.838904    12A     -7.566124  
      13A     -7.565909    14A     -7.564292    15A     -7.558882  
      16A     -7.558664    17A     -7.558616    18A     -7.558446  
      19A     -7.556880    20A     -7.556731    21A     -1.237299  
      22A     -1.160285    23A     -1.055390    24A     -0.943932  
      25A     -0.940503    26A     -0.853754    27A     -0.782764  
      28A     -0.705907    29A     -0.635263    30A     -0.610113  
      31A     -0.602498    32A     -0.552176    33A     -0.544625  
      34A     -0.526137    35A     -0.495422    36A     -0.488168  
      37A     -0.434498    38A     -0.429448    39A     -0.423018  
      40A     -0.418469    41A     -0.395674    42A     -0.391614  
      43A     -0.378650    44A     -0.374254    45A     -0.365924  

    Virtual:                                                              

      46A     -0.006024    47A      0.004253    48A      0.009941  
      49A      0.016289    50A      0.026898    51A      0.033434  
      52A      0.035191    53A      0.045165    54A      0.053320  
      55A      0.061245    56A      0.071039    57A      0.076157  
      58A      0.084019    59A      0.098134    60A      0.101795  
      61A      0.105493    62A      0.111414    63A      0.117613  
      64A      0.120204    65A      0.128516    66A      0.130323  
      67A      0.133525    68A      0.137838    69A      0.143359  
      70A      0.146903    71A      0.152358    72A      0.166664  
      73A      0.174967    74A      0.186807    75A      0.187422  
      76A      0.207259    77A      0.212389    78A      0.217754  
      79A      0.226896    80A      0.238074    81A      0.256058  
      82A      0.259215    83A      0.268749    84A      0.288504  
      85A      0.294970    86A      0.306757    87A      0.316717  
      88A      0.328763    89A      0.348895    90A      0.352584  
      91A      0.354242    92A      0.372586    93A      0.409920  
      94A      0.416162    95A      0.435867    96A      0.439619  
      97A      0.444539    98A      0.470280    99A      0.481838  
     100A      0.488608   101A      0.492567   102A      0.498527  
     103A      0.508090   104A      0.510685   105A      0.517714  
     106A      0.537933   107A      0.554929   108A      0.563753  
     109A      0.591632   110A      0.602563   111A      0.618049  
     112A      0.635154   113A      0.673281   114A      0.683203  
     115A      0.703203   116A      0.722281   117A      0.740799  
     118A      0.852349   119A      0.867272   120A      0.887395  
     121A      0.908035   122A      0.917915   123A      0.926602  
     124A      0.938724   125A      0.950131   126A      0.956574  
     127A      0.962801   128A      0.973265   129A      0.982055  
     130A      1.009460   131A      1.030030   132A      1.049967  
     133A      1.053618   134A      1.079560   135A      1.099941  
     136A      1.145265   137A      1.161126   138A      1.185104  
     139A      1.193354   140A      1.231155   141A      1.243095  
     142A      1.297968   143A      1.298755   144A      1.335001  
     145A      1.376000   146A      1.386795   147A      1.395433  
     148A      1.408329   149A      1.478691   150A      1.500969  
     151A      1.548883   152A      1.574132   153A      1.585247  
     154A      1.596250   155A      1.628495   156A      1.637225  
     157A      1.703599   158A      1.725684   159A      1.746519  
     160A      1.759847   161A      1.787019   162A      1.822069  
     163A      1.839386   164A      1.869748   165A      1.935269  
     166A      1.977005   167A      2.014097   168A      2.045504  
     169A      2.088795   170A      2.145924   171A      2.171643  
     172A      2.212442   173A      2.289969   174A      2.311985  
     175A      2.324383   176A      2.350247   177A      2.364251  
     178A      2.373800   179A      2.460454   180A      2.496949  
     181A      2.511907   182A      2.542409   183A      2.549229  
     184A      2.556106   185A      2.571358   186A      2.601250  
     187A      2.631378   188A      2.670046   189A      2.789106  
     190A      2.876856   191A      2.931615   192A      2.953922  
     193A      3.006458   194A      3.071660   195A      3.112223  
     196A      3.139788   197A      3.173020   198A      3.192964  
     199A      3.239891   200A      3.257588   201A      3.349014  
     202A      3.501477   203A      3.776471   204A      3.826929  
     205A      3.871795   206A      3.948529   207A      4.032478  
     208A      4.094529   209A      4.163749   210A      5.210247  
     211A      5.226759   212A      5.440766   213A      5.523810  
     214A      5.683537   215A      5.853256   216A      9.937354  
     217A      9.944948   218A      9.960967   219A     23.491246  
     220A     23.796153   221A     23.989282   222A     25.958811  
     223A     26.001444   224A     26.008757   225A     26.031969  
     226A     26.095985   227A     26.119383   228A     26.522891  
     229A     26.566820   230A     26.821518   231A     50.006803  
     232A     50.022909   233A    216.038430   234A    216.045778  
     235A    216.078283  

    Final Occupation by Irrep:
              A 
    DOCC [    45 ]

  Energy converged.

  @DF-RKS Final Energy: -1648.31722237777149

   => Energetics <=

    Nuclear Repulsion Energy =            682.5646893217475508
    One-Electron Energy =               -3629.8651247081174915
    Two-Electron Energy =                1356.0941485848015873
    DFT Exchange-Correlation Energy =     -57.1109355762032536
    Empirical Dispersion Energy =           0.0000000000000000
    VV10 Nonlocal Energy =                  0.0000000000000000
    Total Energy =                      -1648.3172223777714862



Properties will be evaluated at   0.000000,   0.000000,   0.000000 [a0]

Properties computed using the SCF density matrix

  Nuclear Dipole Moment: [e a0]
     X:     3.1087      Y:     7.4333      Z:   -11.6615

  Electronic Dipole Moment: [e a0]
     X:    -2.7210      Y:    -6.8220      Z:    11.0340

  Dipole Moment: [e a0]
     X:     0.3877      Y:     0.6114      Z:    -0.6275     Total:     0.9580

  Dipole Moment: [D]
     X:     0.9854      Y:     1.5539      Z:    -1.5950     Total:     2.4351


*** tstop() called on localhost.localdomain at Tue Mar 19 13:08:41 2019
Module time:
	user time   =     402.24 seconds =       6.70 minutes
	system time =      11.77 seconds =       0.20 minutes
	total time  =         31 seconds =       0.52 minutes
Total time:
	user time   =     402.24 seconds =       6.70 minutes
	system time =      11.77 seconds =       0.20 minutes
	total time  =         31 seconds =       0.52 minutes

*** tstart() called on localhost.localdomain
*** at Tue Mar 19 13:08:41 2019


         ------------------------------------------------------------
                                   SCF GRAD                          
                          Rob Parrish, Justin Turney,                
                       Andy Simmonett, and Alex Sokolov              
         ------------------------------------------------------------

  ==> Geometry <==

    Molecular point group: c1
    Full point group: C1

    Geometry (in Angstrom), charge = 0, multiplicity = 1:

       Center              X                  Y                   Z               Mass       
    ------------   -----------------  -----------------  -----------------  -----------------
         C            0.046058198010     0.114213216157    -1.177786976883    12.000000000000
         O           -1.017614360712    -0.394230565245    -1.898519371293    15.994914619560
         CL           1.424670873455     0.382760696912     1.125805667520    34.968852682000
         CL          -1.493198526182     0.335018457405     1.064154353267    34.968852682000
         H            0.828913659389     3.129754812052    -2.137712973256     1.007825032070
         C            1.106208371954     2.090065329129    -1.977265400680    12.000000000000
         H            1.223330758228     1.594646423657    -2.945341086294     1.007825032070
         H            2.045110310176     2.045228800423    -1.418139293883     1.007825032070
         O            0.054128080929     1.500076366498    -1.228770276278    15.994914619560
         H           -1.781779486389     0.164178230139    -1.715900309538     1.007825032070
         C           -0.010189400414    -0.300063287015     0.324616389208    12.000000000000
         CL           0.022884959217    -2.067430225731     0.494282483373    34.968852682000
         H            0.960814278522    -0.328239835404    -1.585121615073     1.007825032070

  Nuclear repulsion =  682.564689321747551

  ==> Basis Set <==

  Basis Set: 6-311++G(D,P)
    Blend: 6-311++G(D,P)
    Number of shells: 117
    Number of basis function: 235
    Number of Cartesian functions: 243
    Spherical Harmonics?: true
    Max angular momentum: 2

  ==> DFJKGrad: Density-Fitted SCF Gradients <==

    Gradient:                    1
    J tasked:                  Yes
    K tasked:                  Yes
    wK tasked:                  No
    OpenMP threads:             16
    Integrals threads:          16
    Memory (MB):               375
    Schwarz Cutoff:          0E+00
    Fitting Condition:       1E-12

   => Auxiliary Basis Set <=

  Basis Set: (6-311++G(D,P) AUX)
    Blend: AUG-CC-PVTZ-JKFIT
    Number of shells: 346
    Number of basis function: 1188
    Number of Cartesian functions: 1470
    Spherical Harmonics?: true
    Max angular momentum: 4

  ==> DFT Potential <==

   => Composite Functional: M06-2X <= 

    Hybrid M06-2X Meta-GGA XC Functional

    Y. Zhao and D. G. Truhlar,  Theor. Chem. Acc., 120, 215, 2008


    Deriv               =              1
    GGA                 =           TRUE
    Meta                =           TRUE

    Exchange Hybrid     =           TRUE
    MP2 Hybrid          =          FALSE

   => Exchange Functionals <=

    1.0000   XC_HYB_MGGA_X_M06_2X

   => Exact (HF) Exchange <=

    0.5400               HF 

   => Correlation Functionals <=

    1.0000   XC_MGGA_C_M06_2X

   => Molecular Quadrature <=

    Radial Scheme       =       TREUTLER
    Pruning Scheme      =           FLAT
    Nuclear Scheme      =       TREUTLER

    BS radius alpha     =              1
    Pruning alpha       =              1
    Radial Points       =             75
    Spherical Points    =            302
    Total Points        =         294161
    Total Blocks        =           2260
    Max Points          =            256
    Max Functions       =            207


  -Total Gradient:
     Atom            X                  Y                   Z
    ------   -----------------  -----------------  -----------------
       1        0.000044643861    -0.000090456689    -0.000353389449
       2       -0.001887888175     0.002274300405    -0.000183433966
       3        0.000004765909    -0.000580347717    -0.001032608265
       4        0.000332374006    -0.001142922833    -0.000278744288
       5       -0.000213978742    -0.000006669713    -0.000233705184
       6        0.000050907178     0.001039029483     0.000063655686
       7        0.000272520096    -0.000063567012     0.000114082492
       8       -0.000079994451     0.000404972430     0.000168620360
       9        0.000204102138    -0.000113089089    -0.000824040708
      10        0.001222320754    -0.000039772918    -0.000798936003
      11       -0.000141329541    -0.000349193525    -0.000133447637
      12        0.000251293824    -0.001404339381     0.003455923736
      13        0.000010833408    -0.000044221636    -0.000028171312


*** tstop() called on localhost.localdomain at Tue Mar 19 13:08:50 2019
Module time:
	user time   =     107.90 seconds =       1.80 minutes
	system time =       3.37 seconds =       0.06 minutes
	total time  =          9 seconds =       0.15 minutes
Total time:
	user time   =     510.18 seconds =       8.50 minutes
	system time =      15.15 seconds =       0.25 minutes
	total time  =         40 seconds =       0.67 minutes

			-----------------------------------------
			 OPTKING 2.0: for geometry optimizations 
			  - R.A. King,  Bethel University        
			-----------------------------------------

	Internal coordinates to be generated automatically.
	Detected frag 1 with atoms:  1 2 3 4 5 6 7 8 9 10 11 12 13
	---Fragment 1 Bond Connectivity---
	 1 : 2 9 11 13
	 2 : 1 10
	 3 : 11
	 4 : 11
	 5 : 6
	 6 : 5 7 8 9
	 7 : 6
	 8 : 6
	 9 : 1 6
	 10 : 2
	 11 : 1 3 4 12
	 12 : 11
	 13 : 1

	---Fragment 1 Geometry and Gradient---
	 C           0.0870373804        0.2158316993       -2.2256948292
	 O          -1.9230124506       -0.7449878015       -3.5876816697
	 CL          2.6922377803        0.7233128916        2.1274643905
	 CL         -2.8217362765        0.6330931340        2.0109602908
	 H           1.5664198041        5.9143794579       -4.0396920702
	 C           2.0904308689        3.9496510719       -3.7364900993
	 H           2.3117601030        3.0134450195       -5.5658880210
	 H           3.8646983978        3.8649223119       -2.6798948837
	 O           0.1022872491        2.8347335111       -2.3220393024
	 H          -3.3670752585        0.3102518919       -3.2425816564
	 C          -0.0192551762       -0.5670374350        0.6134360738
	 CL          0.0432463055       -3.9068769255        0.9340585259
	 H           1.8156758510       -0.6202833948       -2.9954457398
	             0.0000446439       -0.0000904567       -0.0003533894
	            -0.0018878882        0.0022743004       -0.0001834340
	             0.0000047659       -0.0005803477       -0.0010326083
	             0.0003323740       -0.0011429228       -0.0002787443
	            -0.0002139787       -0.0000066697       -0.0002337052
	             0.0000509072        0.0010390295        0.0000636557
	             0.0002725201       -0.0000635670        0.0001140825
	            -0.0000799945        0.0004049724        0.0001686204
	             0.0002041021       -0.0001130891       -0.0008240407
	             0.0012223208       -0.0000397729       -0.0007989360
	            -0.0001413295       -0.0003491935       -0.0001334476
	             0.0002512938       -0.0014043394        0.0034559237
	             0.0000108334       -0.0000442216       -0.0000281713

	Previous optimization step data not found.  Starting new optimization.

	---Fragment 1 Intrafragment Coordinates---
	 - Coordinate -           - BOHR/RAD -       - ANG/DEG -
	 R(1,2)           =         2.611222	       1.381799
	 R(1,9)           =         2.620718	       1.386824
	 R(1,11)          =         2.947006	       1.559489
	 R(1,13)          =         2.068767	       1.094744
	 R(2,10)          =         1.821522	       0.963908
	 R(3,11)          =         3.362957	       1.779600
	 R(4,11)          =         3.353698	       1.774700
	 R(5,6)           =         2.055888	       1.087929
	 R(6,7)           =         2.066922	       1.093768
	 R(6,8)           =         2.066784	       1.093695
	 R(6,9)           =         2.682616	       1.419579
	 R(11,12)         =         3.355776	       1.775800
	 B(1,2,10)        =         1.873683	     107.354110
	 B(1,9,6)         =         2.025300	     116.041154
	 B(1,11,3)        =         1.878340	     107.620949
	 B(1,11,4)        =         1.914030	     109.665862
	 B(1,11,12)       =         1.934525	     110.840134
	 B(2,1,9)         =         1.931579	     110.671350
	 B(2,1,11)        =         1.957335	     112.147060
	 B(2,1,13)        =         1.875935	     107.483179
	 B(3,11,4)        =         1.927138	     110.416875
	 B(3,11,12)       =         1.900583	     108.895407
	 B(4,11,12)       =         1.909117	     109.384337
	 B(5,6,7)         =         1.906702	     109.245976
	 B(5,6,8)         =         1.910685	     109.474186
	 B(5,6,9)         =         1.860890	     106.621125
	 B(7,6,8)         =         1.919823	     109.997756
	 B(7,6,9)         =         1.936692	     110.964275
	 B(8,6,9)         =         1.927981	     110.465200
	 B(9,1,11)        =         1.876634	     107.523184
	 B(9,1,13)        =         1.966373	     112.664856
	 B(11,1,13)       =         1.855877	     106.333924
	 D(1,9,6,5)       =         2.887795	     165.458437
	 D(1,9,6,7)       =         0.813196	      46.592711
	 D(1,9,6,8)       =        -1.320790	     -75.675688
	 D(2,1,9,6)       =        -1.927361	    -110.429640
	 D(2,1,11,3)      =         3.119293	     178.722342
	 D(2,1,11,4)      =        -1.066949	     -61.131654
	 D(2,1,11,12)     =         1.042731	      59.744078
	 D(3,11,1,9)      =        -1.036633	     -59.394682
	 D(3,11,1,13)     =         1.073562	      61.510598
	 D(4,11,1,9)      =         1.060311	      60.751322
	 D(4,11,1,13)     =        -3.112679	    -178.343398
	 D(6,9,1,11)      =         2.212615	     126.773512
	 D(6,9,1,13)      =         0.173426	       9.936566
	 D(9,1,2,10)      =        -0.717881	     -41.131567
	 D(9,1,11,12)     =        -3.113195	    -178.372947
	 D(10,2,1,11)     =         1.377680	      78.935267
	 D(10,2,1,13)     =        -2.871810	    -164.542611
	 D(12,11,1,13)    =        -1.003000	     -57.467667
	 R(3,6)           =         6.719925	       3.556031
	 R(4,6)           =         8.256036	       4.368906

	Current energy   :     -1648.3172223778

	Generating empirical Hessian (Schlegel '84) for each fragment.
	Taking RFO optimization step.
	Going to follow RFO solution 1.
	Using RFO vector 1.
	Norm of target step-size    0.37386
	Projected energy change by RFO approximation:         0.0010669769

	Back-transformation to cartesian coordinates...
	Could not converge backtransformation.
	Using first guess instead.

	--- Internal Coordinate Step in ANG or DEG, aJ/ANG or AJ/DEG ---
	 ---------------------------------------------------------------------------
	   Coordinate                Previous        Force       Change         New 
	   ----------                --------       ------       ------       ------
	    1 R(1,2)          =      1.381799    -0.001695     0.001396     1.383195
	    2 R(1,9)          =      1.386824    -0.012024    -0.001361     1.385463
	    3 R(1,11)         =      1.559489    -0.025764    -0.006218     1.553271
	    4 R(1,13)         =      1.094744    -0.000277     0.000724     1.095468
	    5 R(2,10)         =      0.963908     0.009571     0.003775     0.967683
	    6 R(3,11)         =      1.779600     0.004764     0.001242     1.780842
	    7 R(4,11)         =      1.774700     0.007153     0.001990     1.776691
	    8 R(5,6)          =      1.087929    -0.000729     0.014029     1.101958
	    9 R(6,7)          =      1.093768     0.000423     0.013541     1.107309
	   10 R(6,8)          =      1.093695    -0.000024     0.014663     1.108358
	   11 R(6,9)          =      1.419579    -0.005144    -0.000868     1.418711
	   12 R(11,12)        =      1.775800    -0.014128    -0.002785     1.773015
	   13 B(1,2,10)       =    107.354110     0.000022     0.106847   107.460957
	   14 B(1,9,6)        =    116.041154    -0.000323    -1.016903   115.024251
	   15 B(1,11,3)       =    107.620949     0.000153     0.401126   108.022075
	   16 B(1,11,4)       =    109.665862     0.000050     0.159049   109.824911
	   17 B(1,11,12)      =    110.840134    -0.000613    -1.874623   108.965511
	   18 B(2,1,9)        =    110.671350     0.000198     1.098689   111.770039
	   19 B(2,1,11)       =    112.147060    -0.000198    -0.575737   111.571323
	   20 B(2,1,13)       =    107.483179    -0.000014    -0.304634   107.178545
	   21 B(3,11,4)       =    110.416875    -0.000067    -0.042975   110.373901
	   22 B(3,11,12)      =    108.895407     0.000225     0.788566   109.683972
	   23 B(4,11,12)      =    109.384337     0.000248     0.548753   109.933090
	   24 B(5,6,7)        =    109.245976     0.000004     0.307029   109.553006
	   25 B(5,6,8)        =    109.474186     0.000006     0.268938   109.743123
	   26 B(5,6,9)        =    106.621125     0.000015    -0.177505   106.443621
	   27 B(7,6,8)        =    109.997756    -0.000002     0.224276   110.222032
	   28 B(7,6,9)        =    110.964275    -0.000023    -0.424375   110.539901
	   29 B(8,6,9)        =    110.465200     0.000000    -0.199584   110.265616
	   30 B(9,1,11)       =    107.523184    -0.000006    -0.027551   107.495633
	   31 B(9,1,13)       =    112.664856    -0.000057    -0.233618   112.431237
	   32 B(11,1,13)      =    106.333924     0.000065    -0.025591   106.308332
	   33 D(1,9,6,5)      =    165.458437     0.000011    10.935494   176.393932
	   34 D(1,9,6,7)      =     46.592711     0.000011    10.904991    57.497702
	   35 D(1,9,6,8)      =    -75.675688     0.000015    11.044537   -64.631150
	   36 D(2,1,9,6)      =   -110.429640    -0.000011     0.983049  -109.446592
	   37 D(2,1,11,3)     =    178.722342    -0.000020    -2.489543   176.232799
	   38 D(2,1,11,4)     =    -61.131654    -0.000011    -2.206988   -63.338642
	   39 D(2,1,11,12)    =     59.744078    -0.000023    -2.612181    57.131897
	   40 D(3,11,1,9)     =    -59.394682     0.000007    -1.499493   -60.894175
	   41 D(3,11,1,13)    =     61.510598    -0.000001    -1.802226    59.708372
	   42 D(4,11,1,9)     =     60.751322     0.000016    -1.216938    59.534384
	   43 D(4,11,1,13)    =   -178.343398     0.000008    -1.519671  -179.863069
	   44 D(6,9,1,11)     =    126.773512     0.000018     1.029339   127.802851
	   45 D(6,9,1,13)     =      9.936566     0.000008     1.209172    11.145738
	   46 D(9,1,2,10)     =    -41.131567    -0.000005    -3.547690   -44.679257
	   47 D(9,1,11,12)    =   -178.372947     0.000004    -1.622131  -179.995078
	   48 D(10,2,1,11)    =     78.935267    -0.000006    -3.217407    75.717860
	   49 D(10,2,1,13)    =   -164.542611    -0.000016    -3.745764  -168.288375
	   50 D(12,11,1,13)   =    -57.467667    -0.000004    -1.924864   -59.392531
	   51 R(3,6)          =      3.556031     0.003235     0.025899     3.581930
	   52 R(4,6)          =      4.368906    -0.001173    -0.013589     4.355317
	 ---------------------------------------------------------------------------
	Successfully symmetrized geometry.

  ==> Convergence Check <==

  Measures of convergence in internal coordinates in au.
  Criteria marked as inactive (o), active & met (*), and active & unmet ( ).
  --------------------------------------------------------------------------------------------- ~
   Step     Total Energy     Delta E     MAX Force     RMS Force      MAX Disp      RMS Disp    ~
  --------------------------------------------------------------------------------------------- ~
    Convergence Criteria    1.00e-06 *    3.00e-04 *             o    1.20e-03 *             o  ~
  --------------------------------------------------------------------------------------------- ~
      1   -1648.31722238   -1.65e+03      8.06e-03      1.70e-03 o    1.93e-01      5.19e-02 o  ~
  ---------------------------------------------------------------------------------------------

	Writing optimization data to binary file.
	Structure for next step:
	Cartesian Geometry (in Angstrom)
	    C     0.0632689542   0.1245955767  -1.1674816147
	    O    -0.9652881802  -0.4394785274  -1.9003665047
	   CL     1.4001301957   0.4108024854   1.1620088435
	   CL    -1.5179200011   0.3708596227   1.0416699618
	    H     0.9093290906   3.1727967677  -2.0048525720
	    C     1.0971755417   2.0870838811  -1.9889468232
	    H     1.0946655278   1.6953388154  -3.0246408543
	    H     2.0729463782   1.8829957153  -1.5045113288
	    O     0.0437633358   1.5082614171  -1.2352703927
	    H    -1.7698561332   0.0612887082  -1.7046314250
	    C    -0.0206355131  -0.2706803776   0.3323074387
	   CL     0.0016841685  -2.0386286012   0.4643816978
	    H     1.0000743514  -0.2992570645  -1.5453648362
			--------------------------
			 OPTKING Finished Execution 
			--------------------------

    Structure for next step:
    Molecular point group: c1
    Full point group: C1

    Geometry (in Angstrom), charge = 0, multiplicity = 1:

    C            0.073323419783     0.107755022969    -1.164080141401
    O           -0.955233714669    -0.456319081182    -1.896965031336
    CL           1.410184661269     0.393961931653     1.165410316843
    CL          -1.507865535550     0.354019068955     1.045071435118
    H            0.919383556146     3.155956213943    -2.001451098685
    C            1.107230007226     2.070243327406    -1.985545349830
    H            1.104719993422     1.678498261669    -3.021239380999
    H            2.083000843745     1.866155161571    -1.501109855500
    O            0.053817801327     1.491420863409    -1.231868919420
    H           -1.759801667654     0.044448154449    -1.701229951722
    C           -0.010581047507    -0.287520931308     0.335708912016
    CL           0.011738634115    -2.055469154904     0.467783171160
    H            1.010128817003    -0.316097618223    -1.541963362854

gradient() will perform analytic gradient computation.

*** tstart() called on localhost.localdomain
*** at Tue Mar 19 13:08:51 2019

   => Loading Basis Set <=

    Name: 6-311++G(D,P)
    Role: ORBITAL
    Keyword: BASIS
    atoms 1, 6, 11       entry C          line   119 file /root/psi4conda/share/psi4/basis/6-311ppg_d_p_.gbs 
    atoms 2, 9           entry O          line   161 file /root/psi4conda/share/psi4/basis/6-311ppg_d_p_.gbs 
    atoms 3-4, 12        entry CL         line   458 file /root/psi4conda/share/psi4/basis/6-311ppg_d_p_.gbs 
    atoms 5, 7-8, 10, 13 entry H          line    42 file /root/psi4conda/share/psi4/basis/6-311ppg_d_p_.gbs 


         ---------------------------------------------------------
                                   SCF
            by Justin Turney, Rob Parrish, Andy Simmonett
                             and Daniel Smith
                              RKS Reference
                       16 Threads,    500 MiB Core
         ---------------------------------------------------------

  ==> Geometry <==

    Molecular point group: c1
    Full point group: C1

    Geometry (in Angstrom), charge = 0, multiplicity = 1:

       Center              X                  Y                   Z               Mass       
    ------------   -----------------  -----------------  -----------------  -----------------
         C            0.073323419783     0.107755022969    -1.164080141401    12.000000000000
         O           -0.955233714669    -0.456319081182    -1.896965031336    15.994914619560
         CL           1.410184661269     0.393961931653     1.165410316843    34.968852682000
         CL          -1.507865535550     0.354019068955     1.045071435118    34.968852682000
         H            0.919383556146     3.155956213943    -2.001451098685     1.007825032070
         C            1.107230007226     2.070243327406    -1.985545349830    12.000000000000
         H            1.104719993422     1.678498261669    -3.021239380999     1.007825032070
         H            2.083000843745     1.866155161571    -1.501109855500     1.007825032070
         O            0.053817801327     1.491420863409    -1.231868919420    15.994914619560
         H           -1.759801667654     0.044448154449    -1.701229951722     1.007825032070
         C           -0.010581047507    -0.287520931308     0.335708912016    12.000000000000
         CL           0.011738634115    -2.055469154904     0.467783171160    34.968852682000
         H            1.010128817003    -0.316097618223    -1.541963362854     1.007825032070

  Running in c1 symmetry.

  Rotational constants: A =      0.04696  B =      0.03315  C =      0.02991 [cm^-1]
  Rotational constants: A =   1407.80697  B =    993.89416  C =    896.81278 [MHz]
  Nuclear repulsion =  683.183654518797539

  Charge       = 0
  Multiplicity = 1
  Electrons    = 90
  Nalpha       = 45
  Nbeta        = 45

  ==> Algorithm <==

  SCF Algorithm Type is DF.
  DIIS enabled.
  MOM disabled.
  Fractional occupation disabled.
  Guess Type is READ.
  Energy threshold   = 1.00e-08
  Density threshold  = 1.00e-08
  Integral threshold = 0.00e+00

  ==> Primary Basis <==

  Basis Set: 6-311++G(D,P)
    Blend: 6-311++G(D,P)
    Number of shells: 117
    Number of basis function: 235
    Number of Cartesian functions: 243
    Spherical Harmonics?: true
    Max angular momentum: 2

  ==> DFT Potential <==

   => Composite Functional: M06-2X <= 

    Hybrid M06-2X Meta-GGA XC Functional

    Y. Zhao and D. G. Truhlar,  Theor. Chem. Acc., 120, 215, 2008


    Deriv               =              1
    GGA                 =           TRUE
    Meta                =           TRUE

    Exchange Hybrid     =           TRUE
    MP2 Hybrid          =          FALSE

   => Exchange Functionals <=

    1.0000   XC_HYB_MGGA_X_M06_2X

   => Exact (HF) Exchange <=

    0.5400               HF 

   => Correlation Functionals <=

    1.0000   XC_MGGA_C_M06_2X

   => Molecular Quadrature <=

    Radial Scheme       =       TREUTLER
    Pruning Scheme      =           FLAT
    Nuclear Scheme      =       TREUTLER

    BS radius alpha     =              1
    Pruning alpha       =              1
    Radial Points       =             75
    Spherical Points    =            302
    Total Points        =         294162
    Total Blocks        =           2274
    Max Points          =            256
    Max Functions       =            207

   => Loading Basis Set <=

    Name: (6-311++G(D,P) AUX)
    Role: JKFIT
    Keyword: DF_BASIS_SCF
    atoms 1, 6, 11       entry C          line   162 file /root/psi4conda/share/psi4/basis/aug-cc-pvtz-jkfit.gbs 
    atoms 2, 9           entry O          line   286 file /root/psi4conda/share/psi4/basis/aug-cc-pvtz-jkfit.gbs 
    atoms 3-4, 12        entry CL         line   816 file /root/psi4conda/share/psi4/basis/aug-cc-pvtz-jkfit.gbs 
    atoms 5, 7-8, 10, 13 entry H          line    70 file /root/psi4conda/share/psi4/basis/aug-cc-pvtz-jkfit.gbs 

  Reading orbitals from file 180, no projection.

  ==> Pre-Iterations <==

   -------------------------------------------------------
    Irrep   Nso     Nmo     Nalpha   Nbeta   Ndocc  Nsocc
   -------------------------------------------------------
     A        235     235       0       0       0       0
   -------------------------------------------------------
    Total     235     235      45      45      45       0
   -------------------------------------------------------

  ==> Integral Setup <==

  ==> DiskDFJK: Density-Fitted J/K Matrices <==

    J tasked:                  Yes
    K tasked:                  Yes
    wK tasked:                  No
    OpenMP threads:             16
    Integrals threads:          16
    Memory (MB):               375
    Algorithm:                Core
    Integral Cache:           NONE
    Schwarz Cutoff:          1E-12
    Fitting Condition:       1E-12

   => Auxiliary Basis Set <=

  Basis Set: (6-311++G(D,P) AUX)
    Blend: AUG-CC-PVTZ-JKFIT
    Number of shells: 346
    Number of basis function: 1188
    Number of Cartesian functions: 1470
    Spherical Harmonics?: true
    Max angular momentum: 4

  Minimum eigenvalue in the overlap matrix is 1.8345266832E-05.
  Using Symmetric Orthogonalization.

  SCF Guess: Orbitals guess was supplied from a previous computation.

  ==> Iterations <==

                           Total Energy        Delta E     RMS |[F,P]|

   @DF-RKS iter   0: -1648.27215752877146   -1.64827e+03   1.76987e-03 
   @DF-RKS iter   1: -1648.31667454073113   -4.45170e-02   5.02046e-04 
   @DF-RKS iter   2: -1648.31710062828097   -4.26088e-04   4.16972e-04 DIIS
   @DF-RKS iter   3: -1648.31741706978823   -3.16442e-04   7.49912e-05 DIIS
   @DF-RKS iter   4: -1648.31743296771629   -1.58979e-05   4.23101e-05 DIIS
   @DF-RKS iter   5: -1648.31743982008084   -6.85236e-06   7.89254e-06 DIIS
   @DF-RKS iter   6: -1648.31743996291129   -1.42830e-07   4.04079e-06 DIIS
   @DF-RKS iter   7: -1648.31743999257947   -2.96682e-08   1.04292e-06 DIIS
   @DF-RKS iter   8: -1648.31743999574815   -3.16868e-09   2.81942e-07 DIIS
   @DF-RKS iter   9: -1648.31743999603123   -2.83080e-10   7.98509e-08 DIIS
   @DF-RKS iter  10: -1648.31743999605692   -2.56932e-11   4.08355e-08 DIIS
   @DF-RKS iter  11: -1648.31743999606147   -4.54747e-12   8.65533e-09 DIIS

  ==> Post-Iterations <==

    Orbital Energies [Eh]
    ---------------------

    Doubly Occupied:                                                      

       1A   -102.699165     2A   -102.698703     3A   -102.695882  
       4A    -19.659521     5A    -19.655696     6A    -10.733211  
       7A    -10.685140     8A    -10.606330     9A     -9.841839  
      10A     -9.841430    11A     -9.838635    12A     -7.567165  
      13A     -7.566749    14A     -7.564020    15A     -7.559938  
      16A     -7.559647    17A     -7.559486    18A     -7.559279  
      19A     -7.556623    20A     -7.556444    21A     -1.236729  
      22A     -1.161158    23A     -1.055498    24A     -0.944509  
      25A     -0.941498    26A     -0.852129    27A     -0.780244  
      28A     -0.706506    29A     -0.633810    30A     -0.609674  
      31A     -0.602051    32A     -0.552439    33A     -0.544448  
      34A     -0.524187    35A     -0.493869    36A     -0.486543  
      37A     -0.434111    38A     -0.429576    39A     -0.422087  
      40A     -0.418644    41A     -0.397155    42A     -0.392679  
      43A     -0.379162    44A     -0.374910    45A     -0.365233  

    Virtual:                                                              

      46A     -0.006159    47A      0.003555    48A      0.009925  
      49A      0.016647    50A      0.027177    51A      0.033076  
      52A      0.033929    53A      0.045706    54A      0.052519  
      55A      0.061775    56A      0.070564    57A      0.076682  
      58A      0.082412    59A      0.099589    60A      0.101998  
      61A      0.105169    62A      0.111677    63A      0.117424  
      64A      0.120564    65A      0.127132    66A      0.130690  
      67A      0.133850    68A      0.137439    69A      0.142536  
      70A      0.147116    71A      0.153021    72A      0.166413  
      73A      0.176066    74A      0.185576    75A      0.186984  
      76A      0.206610    77A      0.210634    78A      0.217647  
      79A      0.226617    80A      0.241237    81A      0.256425  
      82A      0.260568    83A      0.265194    84A      0.287146  
      85A      0.298089    86A      0.302023    87A      0.317990  
      88A      0.327759    89A      0.348545    90A      0.352477  
      91A      0.355478    92A      0.371630    93A      0.406032  
      94A      0.413128    95A      0.435595    96A      0.438958  
      97A      0.445292    98A      0.469893    99A      0.480920  
     100A      0.485625   101A      0.489496   102A      0.497762  
     103A      0.509632   104A      0.513639   105A      0.522513  
     106A      0.536821   107A      0.558298   108A      0.559997  
     109A      0.591169   110A      0.603351   111A      0.616007  
     112A      0.638126   113A      0.669673   114A      0.682104  
     115A      0.698122   116A      0.715062   117A      0.742442  
     118A      0.852026   119A      0.869795   120A      0.885242  
     121A      0.910503   122A      0.919017   123A      0.927104  
     124A      0.936837   125A      0.950272   126A      0.955273  
     127A      0.964586   128A      0.979580   129A      0.982753  
     130A      1.006666   131A      1.031807   132A      1.042918  
     133A      1.059399   134A      1.073158   135A      1.095455  
     136A      1.143880   137A      1.158916   138A      1.183411  
     139A      1.192551   140A      1.228974   141A      1.250772  
     142A      1.290811   143A      1.299994   144A      1.335792  
     145A      1.376512   146A      1.390361   147A      1.397556  
     148A      1.405223   149A      1.467210   150A      1.503985  
     151A      1.541811   152A      1.573723   153A      1.582142  
     154A      1.597464   155A      1.619621   156A      1.631242  
     157A      1.702248   158A      1.730259   159A      1.742010  
     160A      1.762668   161A      1.784186   162A      1.821038  
     163A      1.841110   164A      1.872345   165A      1.932253  
     166A      1.973448   167A      2.019008   168A      2.038796  
     169A      2.087850   170A      2.131008   171A      2.167156  
     172A      2.199605   173A      2.288914   174A      2.311586  
     175A      2.324403   176A      2.351752   177A      2.362383  
     178A      2.374596   179A      2.436234   180A      2.487720  
     181A      2.499467   182A      2.533482   183A      2.547118  
     184A      2.555971   185A      2.569574   186A      2.607016  
     187A      2.637490   188A      2.667723   189A      2.796793  
     190A      2.871647   191A      2.933295   192A      2.962224  
     193A      3.007756   194A      3.080348   195A      3.119342  
     196A      3.142127   197A      3.174675   198A      3.186765  
     199A      3.240720   200A      3.256258   201A      3.356220  
     202A      3.505064   203A      3.765227   204A      3.803851  
     205A      3.853400   206A      3.954067   207A      4.027067  
     208A      4.095304   209A      4.162589   210A      5.210843  
     211A      5.228060   212A      5.437009   213A      5.525223  
     214A      5.674519   215A      5.852788   216A      9.936812  
     217A      9.944970   218A      9.959374   219A     23.494588  
     220A     23.798455   221A     23.954341   222A     25.956710  
     223A     26.000891   224A     26.006688   225A     26.039342  
     226A     26.090500   227A     26.116583   228A     26.530268  
     229A     26.572057   230A     26.822763   231A     50.006528  
     232A     50.023996   233A    216.037140   234A    216.045711  
     235A    216.077368  

    Final Occupation by Irrep:
              A 
    DOCC [    45 ]

  Energy converged.

  @DF-RKS Final Energy: -1648.31743999606147

   => Energetics <=

    Nuclear Repulsion Energy =            683.1836545187975389
    One-Electron Energy =               -3631.0999844147363547
    Two-Electron Energy =                1356.7040703066177230
    DFT Exchange-Correlation Energy =     -57.1051804067403381
    Empirical Dispersion Energy =           0.0000000000000000
    VV10 Nonlocal Energy =                  0.0000000000000000
    Total Energy =                      -1648.3174399960614664



Properties will be evaluated at   0.000000,   0.000000,   0.000000 [a0]

Properties computed using the SCF density matrix

  Nuclear Dipole Moment: [e a0]
     X:     3.2218      Y:     7.2288      Z:   -11.6231

  Electronic Dipole Moment: [e a0]
     X:    -2.8538      Y:    -6.6466      Z:    11.0299

  Dipole Moment: [e a0]
     X:     0.3680      Y:     0.5822      Z:    -0.5932     Total:     0.9090

  Dipole Moment: [D]
     X:     0.9353      Y:     1.4798      Z:    -1.5078     Total:     2.3104


*** tstop() called on localhost.localdomain at Tue Mar 19 13:09:14 2019
Module time:
	user time   =     311.12 seconds =       5.19 minutes
	system time =       6.80 seconds =       0.11 minutes
	total time  =         23 seconds =       0.38 minutes
Total time:
	user time   =     822.85 seconds =      13.71 minutes
	system time =      22.09 seconds =       0.37 minutes
	total time  =         64 seconds =       1.07 minutes

*** tstart() called on localhost.localdomain
*** at Tue Mar 19 13:09:14 2019


         ------------------------------------------------------------
                                   SCF GRAD                          
                          Rob Parrish, Justin Turney,                
                       Andy Simmonett, and Alex Sokolov              
         ------------------------------------------------------------

  ==> Geometry <==

    Molecular point group: c1
    Full point group: C1

    Geometry (in Angstrom), charge = 0, multiplicity = 1:

       Center              X                  Y                   Z               Mass       
    ------------   -----------------  -----------------  -----------------  -----------------
         C            0.073323419783     0.107755022969    -1.164080141401    12.000000000000
         O           -0.955233714669    -0.456319081182    -1.896965031336    15.994914619560
         CL           1.410184661269     0.393961931653     1.165410316843    34.968852682000
         CL          -1.507865535550     0.354019068955     1.045071435118    34.968852682000
         H            0.919383556146     3.155956213943    -2.001451098685     1.007825032070
         C            1.107230007226     2.070243327406    -1.985545349830    12.000000000000
         H            1.104719993422     1.678498261669    -3.021239380999     1.007825032070
         H            2.083000843745     1.866155161571    -1.501109855500     1.007825032070
         O            0.053817801327     1.491420863409    -1.231868919420    15.994914619560
         H           -1.759801667654     0.044448154449    -1.701229951722     1.007825032070
         C           -0.010581047507    -0.287520931308     0.335708912016    12.000000000000
         CL           0.011738634115    -2.055469154904     0.467783171160    34.968852682000
         H            1.010128817003    -0.316097618223    -1.541963362854     1.007825032070

  Nuclear repulsion =  683.183654518797539

  ==> Basis Set <==

  Basis Set: 6-311++G(D,P)
    Blend: 6-311++G(D,P)
    Number of shells: 117
    Number of basis function: 235
    Number of Cartesian functions: 243
    Spherical Harmonics?: true
    Max angular momentum: 2

  ==> DFJKGrad: Density-Fitted SCF Gradients <==

    Gradient:                    1
    J tasked:                  Yes
    K tasked:                  Yes
    wK tasked:                  No
    OpenMP threads:             16
    Integrals threads:          16
    Memory (MB):               375
    Schwarz Cutoff:          0E+00
    Fitting Condition:       1E-12

   => Auxiliary Basis Set <=

  Basis Set: (6-311++G(D,P) AUX)
    Blend: AUG-CC-PVTZ-JKFIT
    Number of shells: 346
    Number of basis function: 1188
    Number of Cartesian functions: 1470
    Spherical Harmonics?: true
    Max angular momentum: 4

  ==> DFT Potential <==

   => Composite Functional: M06-2X <= 

    Hybrid M06-2X Meta-GGA XC Functional

    Y. Zhao and D. G. Truhlar,  Theor. Chem. Acc., 120, 215, 2008


    Deriv               =              1
    GGA                 =           TRUE
    Meta                =           TRUE

    Exchange Hybrid     =           TRUE
    MP2 Hybrid          =          FALSE

   => Exchange Functionals <=

    1.0000   XC_HYB_MGGA_X_M06_2X

   => Exact (HF) Exchange <=

    0.5400               HF 

   => Correlation Functionals <=

    1.0000   XC_MGGA_C_M06_2X

   => Molecular Quadrature <=

    Radial Scheme       =       TREUTLER
    Pruning Scheme      =           FLAT
    Nuclear Scheme      =       TREUTLER

    BS radius alpha     =              1
    Pruning alpha       =              1
    Radial Points       =             75
    Spherical Points    =            302
    Total Points        =         294162
    Total Blocks        =           2274
    Max Points          =            256
    Max Functions       =            207


  -Total Gradient:
     Atom            X                  Y                   Z
    ------   -----------------  -----------------  -----------------
       1        0.000154435128     0.000468310220     0.000070421811
       2        0.001109069453    -0.002928056497    -0.000009996568
       3        0.001203134777     0.000493502955    -0.000519636104
       4       -0.000507200036    -0.000026183703    -0.000219057549
       5       -0.002283797522     0.009186062841     0.000105565784
       6       -0.004058815010    -0.003018249833     0.004026905307
       7       -0.000861538840    -0.003384488966    -0.007636287908
       8        0.007531293679    -0.002327818243     0.004660487735
       9       -0.000325053163    -0.000349710769    -0.000303983268
      10       -0.001699400189     0.001684747154     0.000441047096
      11       -0.000440534025     0.000450726103     0.000305436039
      12       -0.000344052995    -0.000102884595    -0.000733859342
      13        0.000643615709    -0.000170012868     0.000085196944


*** tstop() called on localhost.localdomain at Tue Mar 19 13:09:23 2019
Module time:
	user time   =     112.37 seconds =       1.87 minutes
	system time =       4.59 seconds =       0.08 minutes
	total time  =          9 seconds =       0.15 minutes
Total time:
	user time   =     935.25 seconds =      15.59 minutes
	system time =      26.69 seconds =       0.44 minutes
	total time  =         73 seconds =       1.22 minutes

			-----------------------------------------
			 OPTKING 2.0: for geometry optimizations 
			  - R.A. King,  Bethel University        
			-----------------------------------------

	Previous internal coordinate definitions found.
	---Fragment 1 Geometry and Gradient---
	 C           0.1385611825        0.2036274829       -2.1997926640
	 O          -1.8051301136       -0.8623180926       -3.5847443929
	 CL          2.6648628066        0.7444801576        2.2023063313
	 CL         -2.8494529074        0.6689990861        1.9748988017
	 H           1.7373831322        5.9638929317       -3.7821944449
	 C           2.0923614798        3.9121929172       -3.7521369356
	 H           2.0876182411        3.1719020291       -5.7093150120
	 H           3.9363011292        3.5265221768       -2.8366865223
	 O           0.1017009056        2.8183769807       -2.3278948893
	 H          -3.3255432001        0.0839948390       -3.2148586978
	 C          -0.0199952820       -0.5433358176        0.6343979041
	 CL          0.0221828037       -3.8842737774        0.8839820831
	 H           1.9088668231       -0.5973379297       -2.9138884627
	             0.0001544351        0.0004683102        0.0000704218
	             0.0011090695       -0.0029280565       -0.0000099966
	             0.0012031348        0.0004935030       -0.0005196361
	            -0.0005072000       -0.0000261837       -0.0002190575
	            -0.0022837975        0.0091860628        0.0001055658
	            -0.0040588150       -0.0030182498        0.0040269053
	            -0.0008615388       -0.0033844890       -0.0076362879
	             0.0075312937       -0.0023278182        0.0046604877
	            -0.0003250532       -0.0003497108       -0.0003039833
	            -0.0016994002        0.0016847472        0.0004410471
	            -0.0004405340        0.0004507261        0.0003054360
	            -0.0003440530       -0.0001028846       -0.0007338593
	             0.0006436157       -0.0001700129        0.0000851969

	---Fragment 1 Intrafragment Coordinates---
	 - Coordinate -           - BOHR/RAD -       - ANG/DEG -
	 R(1,2)           =         2.613861	       1.383195
	 R(1,9)           =         2.618145	       1.385463
	 R(1,11)          =         2.935256	       1.553271
	 R(1,13)          =         2.070135	       1.095468
	 R(2,10)          =         1.828655	       0.967683
	 R(3,11)          =         3.365304	       1.780842
	 R(4,11)          =         3.357459	       1.776691
	 R(5,6)           =         2.082399	       1.101958
	 R(6,7)           =         2.092510	       1.107309
	 R(6,8)           =         2.094494	       1.108358
	 R(6,9)           =         2.680975	       1.418711
	 R(11,12)         =         3.350513	       1.773015
	 B(1,2,10)        =         1.875548	     107.460957
	 B(1,9,6)         =         2.007552	     115.024251
	 B(1,11,3)        =         1.885341	     108.022075
	 B(1,11,4)        =         1.916806	     109.824911
	 B(1,11,12)       =         1.901807	     108.965511
	 B(2,1,9)         =         1.950755	     111.770039
	 B(2,1,11)        =         1.947287	     111.571323
	 B(2,1,13)        =         1.870618	     107.178545
	 B(3,11,4)        =         1.926388	     110.373901
	 B(3,11,12)       =         1.914346	     109.683972
	 B(4,11,12)       =         1.918694	     109.933090
	 B(5,6,7)         =         1.912061	     109.553006
	 B(5,6,8)         =         1.915379	     109.743123
	 B(5,6,9)         =         1.857792	     106.443621
	 B(7,6,8)         =         1.923737	     110.222032
	 B(7,6,9)         =         1.929285	     110.539901
	 B(8,6,9)         =         1.924498	     110.265616
	 B(9,1,11)        =         1.876153	     107.495633
	 B(9,1,13)        =         1.962295	     112.431237
	 B(11,1,13)       =         1.855430	     106.308332
	 D(1,9,6,5)       =         3.078655	     176.393932
	 D(1,9,6,7)       =         1.003524	      57.497702
	 D(1,9,6,8)       =        -1.128026	     -64.631150
	 D(2,1,9,6)       =        -1.910203	    -109.446592
	 D(2,1,11,3)      =         3.075843	     176.232799
	 D(2,1,11,4)      =        -1.105468	     -63.338642
	 D(2,1,11,12)     =         0.997140	      57.131897
	 D(3,11,1,9)      =        -1.062804	     -60.894175
	 D(3,11,1,13)     =         1.042108	      59.708372
	 D(4,11,1,9)      =         1.039071	      59.534384
	 D(4,11,1,13)     =        -3.139203	    -179.863069
	 D(6,9,1,11)      =         2.230581	     127.802851
	 D(6,9,1,13)      =         0.194530	      11.145738
	 D(9,1,2,10)      =        -0.779800	     -44.679257
	 D(9,1,11,12)     =        -3.141507	    -179.995078
	 D(10,2,1,11)     =         1.321526	      75.717860
	 D(10,2,1,13)     =        -2.937186	    -168.288375
	 D(12,11,1,13)    =        -1.036595	     -59.392531
	 R(3,6)           =         6.768867	       3.581930
	 R(4,6)           =         8.230357	       4.355317

	Current energy   :     -1648.3174399961

	Energy change for the previous step:
		Projected    :         0.0010669769
		Actual       :        -0.0002176183

	Performing BFGS update.
	Previous computed or guess Hessian on step 1.
	Steps to be used in Hessian update: 1
	Taking RFO optimization step.
	Going to follow RFO solution 1.
	Using RFO vector 1.
	Norm of target step-size    0.11030
	Projected energy change by RFO approximation:        -0.0004409051

	Back-transformation to cartesian coordinates...
	Could not converge backtransformation.
	Using first guess instead.

	--- Internal Coordinate Step in ANG or DEG, aJ/ANG or AJ/DEG ---
	 ---------------------------------------------------------------------------
	   Coordinate                Previous        Force       Change         New 
	   ----------                --------       ------       ------       ------
	    1 R(1,2)          =      1.383195    -0.006184    -0.001046     1.382150
	    2 R(1,9)          =      1.385463    -0.003490    -0.000459     1.385004
	    3 R(1,11)         =      1.553271     0.005558     0.000424     1.553695
	    4 R(1,13)         =      1.095468    -0.004805    -0.000844     1.094625
	    5 R(2,10)         =      0.967683    -0.019616    -0.002338     0.965345
	    6 R(3,11)         =      1.780842    -0.009019    -0.000998     1.779844
	    7 R(4,11)         =      1.776691    -0.003277    -0.000571     1.776119
	    8 R(5,6)          =      1.101958    -0.077718    -0.013656     1.088302
	    9 R(6,7)          =      1.107309    -0.068975    -0.012359     1.094950
	   10 R(6,8)          =      1.108358    -0.074803    -0.013315     1.095043
	   11 R(6,9)          =      1.418711    -0.002822    -0.000229     1.418482
	   12 R(11,12)        =      1.773015    -0.000258    -0.000066     1.772950
	   13 B(1,2,10)       =    107.460957     0.000052     0.126123   107.587080
	   14 B(1,9,6)        =    115.024251    -0.000091    -0.168176   114.856075
	   15 B(1,11,3)       =    108.022075     0.000039     0.033603   108.055678
	   16 B(1,11,4)       =    109.824911     0.000016    -0.047405   109.777506
	   17 B(1,11,12)      =    108.965511     0.000131     0.291859   109.257370
	   18 B(2,1,9)        =    111.770039    -0.000056    -0.135041   111.634998
	   19 B(2,1,11)       =    111.571323     0.000080     0.207958   111.779281
	   20 B(2,1,13)       =    107.178545    -0.000025    -0.087050   107.091495
	   21 B(3,11,4)       =    110.373901    -0.000073    -0.258078   110.115822
	   22 B(3,11,12)      =    109.683972    -0.000069    -0.084367   109.599605
	   23 B(4,11,12)      =    109.933090    -0.000039     0.069004   110.002094
	   24 B(5,6,7)        =    109.553006    -0.000052    -0.231394   109.321611
	   25 B(5,6,8)        =    109.743123    -0.000082    -0.337565   109.405558
	   26 B(5,6,9)        =    106.443621     0.000043     0.183907   106.627527
	   27 B(7,6,8)        =    110.222032    -0.000079    -0.311172   109.910860
	   28 B(7,6,9)        =    110.539901     0.000087     0.366028   110.905928
	   29 B(8,6,9)        =    110.265616     0.000086     0.334005   110.599621
	   30 B(9,1,11)       =    107.495633     0.000009     0.009656   107.505289
	   31 B(9,1,13)       =    112.431237    -0.000010    -0.096812   112.334425
	   32 B(11,1,13)      =    106.308332     0.000007     0.118296   106.426629
	   33 D(1,9,6,5)      =    176.393932     0.000002     1.156659   177.550590
	   34 D(1,9,6,7)      =     57.497702    -0.000001     1.124412    58.622114
	   35 D(1,9,6,8)      =    -64.631150    -0.000004     1.042635   -63.588515
	   36 D(2,1,9,6)      =   -109.446592     0.000018     1.710834  -107.735757
	   37 D(2,1,11,3)     =    176.232799     0.000011     1.271683   177.504482
	   38 D(2,1,11,4)     =    -63.338642    -0.000002     0.950867   -62.387775
	   39 D(2,1,11,12)    =     57.131897     0.000008     1.188295    58.320192
	   40 D(3,11,1,9)     =    -60.894175     0.000008     1.241131   -59.653044
	   41 D(3,11,1,13)    =     59.708372     0.000007     1.196450    60.904821
	   42 D(4,11,1,9)     =     59.534384    -0.000005     0.920315    60.454698
	   43 D(4,11,1,13)    =   -179.863069    -0.000006     0.875633  -178.987436
	   44 D(6,9,1,11)     =    127.802851     0.000002     1.530088   129.332939
	   45 D(6,9,1,13)     =     11.145738    -0.000000     1.434256    12.579994
	   46 D(9,1,2,10)     =    -44.679257    -0.000011    -1.228803   -45.908061
	   47 D(9,1,11,12)    =   -179.995078     0.000005     1.157743  -178.837335
	   48 D(10,2,1,11)    =     75.717860    -0.000004    -1.165712    74.552148
	   49 D(10,2,1,13)    =   -168.288375     0.000004    -0.963188  -169.251563
	   50 D(12,11,1,13)   =    -59.392531     0.000004     1.113062   -58.279469
	   51 R(3,6)          =      3.581930     0.005541     0.015890     3.597820
	   52 R(4,6)          =      4.355317     0.000761     0.017764     4.373082
	 ---------------------------------------------------------------------------
	Successfully symmetrized geometry.

  ==> Convergence Check <==

  Measures of convergence in internal coordinates in au.
  Criteria marked as inactive (o), active & met (*), and active & unmet ( ).
  ---------------------------------------------------------------------------------------------
   Step     Total Energy     Delta E     MAX Force     RMS Force      MAX Disp      RMS Disp   
  ---------------------------------------------------------------------------------------------
    Convergence Criteria    1.00e-06 *    3.00e-04 *             o    1.20e-03 *             o
  ---------------------------------------------------------------------------------------------
      2   -1648.31744000   -2.18e-04      9.43e-03      2.27e-03 o    3.36e-02      1.52e-02 o  ~
  ---------------------------------------------------------------------------------------------

	Writing optimization data to binary file.
	Structure for next step:
	Cartesian Geometry (in Angstrom)
	    C     0.0779355575   0.1113368019  -1.1580936060
	    O    -0.9475067621  -0.4406775203  -1.9024631276
	   CL     1.3841369579   0.4087411661   1.1874087691
	   CL    -1.5258695742   0.3322215185   1.0362342373
	    H     0.9458730319   3.1429223157  -1.9870434978
	    C     1.1076306744   2.0667287401  -1.9936179865
	    H     1.0732238174   1.7014970883  -3.0252851041
	    H     2.0839454737   1.8428463708  -1.5511190554
	    O     0.0657699618   1.4949371040  -1.2192333206
	    H    -1.7534572256   0.0494507419  -1.6972594097
	    C    -0.0156308109  -0.2911181821   0.3396524651
	   CL     0.0302389733  -2.0583573949   0.4742316810
	    H     1.0137556934  -0.3134775296  -1.5348913015
			--------------------------
			 OPTKING Finished Execution 
			--------------------------

    Structure for next step:
    Molecular point group: c1
    Full point group: C1

    Geometry (in Angstrom), charge = 0, multiplicity = 1:

    C            0.081157092719     0.111832038381    -1.162552275111
    O           -0.944285226845    -0.440182283802    -1.906921796754
    CL           1.387358493166     0.409236402607     1.182950099978
    CL          -1.522648038988     0.332716754998     1.031775568186
    H            0.949094567106     3.143417552165    -1.991502166923
    C            1.110852209633     2.067223976592    -1.998076655580
    H            1.076445352605     1.701992324839    -3.029743773218
    H            2.087167008944     1.843341607308    -1.555577724502
    O            0.068991497037     1.495432340560    -1.223691989681
    H           -1.750235690331     0.049945978449    -1.701718078808
    C           -0.012409275656    -0.290622945580     0.335193796003
    CL           0.033460508507    -2.057862158344     0.469773011916
    H            1.016977228620    -0.312982293117    -1.539349970651

gradient() will perform analytic gradient computation.

*** tstart() called on localhost.localdomain
*** at Tue Mar 19 13:09:23 2019

   => Loading Basis Set <=

    Name: 6-311++G(D,P)
    Role: ORBITAL
    Keyword: BASIS
    atoms 1, 6, 11       entry C          line   119 file /root/psi4conda/share/psi4/basis/6-311ppg_d_p_.gbs 
    atoms 2, 9           entry O          line   161 file /root/psi4conda/share/psi4/basis/6-311ppg_d_p_.gbs 
    atoms 3-4, 12        entry CL         line   458 file /root/psi4conda/share/psi4/basis/6-311ppg_d_p_.gbs 
    atoms 5, 7-8, 10, 13 entry H          line    42 file /root/psi4conda/share/psi4/basis/6-311ppg_d_p_.gbs 


         ---------------------------------------------------------
                                   SCF
            by Justin Turney, Rob Parrish, Andy Simmonett
                             and Daniel Smith
                              RKS Reference
                       16 Threads,    500 MiB Core
         ---------------------------------------------------------

  ==> Geometry <==

    Molecular point group: c1
    Full point group: C1

    Geometry (in Angstrom), charge = 0, multiplicity = 1:

       Center              X                  Y                   Z               Mass       
    ------------   -----------------  -----------------  -----------------  -----------------
         C            0.081157092719     0.111832038381    -1.162552275111    12.000000000000
         O           -0.944285226845    -0.440182283802    -1.906921796754    15.994914619560
         CL           1.387358493166     0.409236402607     1.182950099978    34.968852682000
         CL          -1.522648038988     0.332716754998     1.031775568186    34.968852682000
         H            0.949094567106     3.143417552165    -1.991502166923     1.007825032070
         C            1.110852209633     2.067223976592    -1.998076655580    12.000000000000
         H            1.076445352605     1.701992324839    -3.029743773218     1.007825032070
         H            2.087167008944     1.843341607308    -1.555577724502     1.007825032070
         O            0.068991497037     1.495432340560    -1.223691989681    15.994914619560
         H           -1.750235690331     0.049945978449    -1.701718078808     1.007825032070
         C           -0.012409275656    -0.290622945580     0.335193796003    12.000000000000
         CL           0.033460508507    -2.057862158344     0.469773011916    34.968852682000
         H            1.016977228620    -0.312982293117    -1.539349970651     1.007825032070

  Running in c1 symmetry.

  Rotational constants: A =      0.04708  B =      0.03306  C =      0.02986 [cm^-1]
  Rotational constants: A =   1411.55880  B =    991.01693  C =    895.30392 [MHz]
  Nuclear repulsion =  683.277688673876241

  Charge       = 0
  Multiplicity = 1
  Electrons    = 90
  Nalpha       = 45
  Nbeta        = 45

  ==> Algorithm <==

  SCF Algorithm Type is DF.
  DIIS enabled.
  MOM disabled.
  Fractional occupation disabled.
  Guess Type is READ.
  Energy threshold   = 1.00e-08
  Density threshold  = 1.00e-08
  Integral threshold = 0.00e+00

  ==> Primary Basis <==

  Basis Set: 6-311++G(D,P)
    Blend: 6-311++G(D,P)
    Number of shells: 117
    Number of basis function: 235
    Number of Cartesian functions: 243
    Spherical Harmonics?: true
    Max angular momentum: 2

  ==> DFT Potential <==

   => Composite Functional: M06-2X <= 

    Hybrid M06-2X Meta-GGA XC Functional

    Y. Zhao and D. G. Truhlar,  Theor. Chem. Acc., 120, 215, 2008


    Deriv               =              1
    GGA                 =           TRUE
    Meta                =           TRUE

    Exchange Hybrid     =           TRUE
    MP2 Hybrid          =          FALSE

   => Exchange Functionals <=

    1.0000   XC_HYB_MGGA_X_M06_2X

   => Exact (HF) Exchange <=

    0.5400               HF 

   => Correlation Functionals <=

    1.0000   XC_MGGA_C_M06_2X

   => Molecular Quadrature <=

    Radial Scheme       =       TREUTLER
    Pruning Scheme      =           FLAT
    Nuclear Scheme      =       TREUTLER

    BS radius alpha     =              1
    Pruning alpha       =              1
    Radial Points       =             75
    Spherical Points    =            302
    Total Points        =         294161
    Total Blocks        =           2289
    Max Points          =            256
    Max Functions       =            206

   => Loading Basis Set <=

    Name: (6-311++G(D,P) AUX)
    Role: JKFIT
    Keyword: DF_BASIS_SCF
    atoms 1, 6, 11       entry C          line   162 file /root/psi4conda/share/psi4/basis/aug-cc-pvtz-jkfit.gbs 
    atoms 2, 9           entry O          line   286 file /root/psi4conda/share/psi4/basis/aug-cc-pvtz-jkfit.gbs 
    atoms 3-4, 12        entry CL         line   816 file /root/psi4conda/share/psi4/basis/aug-cc-pvtz-jkfit.gbs 
    atoms 5, 7-8, 10, 13 entry H          line    70 file /root/psi4conda/share/psi4/basis/aug-cc-pvtz-jkfit.gbs 

  Reading orbitals from file 180, no projection.

  ==> Pre-Iterations <==

   -------------------------------------------------------
    Irrep   Nso     Nmo     Nalpha   Nbeta   Ndocc  Nsocc
   -------------------------------------------------------
     A        235     235       0       0       0       0
   -------------------------------------------------------
    Total     235     235      45      45      45       0
   -------------------------------------------------------

  ==> Integral Setup <==

  ==> DiskDFJK: Density-Fitted J/K Matrices <==

    J tasked:                  Yes
    K tasked:                  Yes
    wK tasked:                  No
    OpenMP threads:             16
    Integrals threads:          16
    Memory (MB):               375
    Algorithm:                Core
    Integral Cache:           NONE
    Schwarz Cutoff:          1E-12
    Fitting Condition:       1E-12

   => Auxiliary Basis Set <=

  Basis Set: (6-311++G(D,P) AUX)
    Blend: AUG-CC-PVTZ-JKFIT
    Number of shells: 346
    Number of basis function: 1188
    Number of Cartesian functions: 1470
    Spherical Harmonics?: true
    Max angular momentum: 4

  Minimum eigenvalue in the overlap matrix is 1.8554959661E-05.
  Using Symmetric Orthogonalization.

  SCF Guess: Orbitals guess was supplied from a previous computation.

  ==> Iterations <==

                           Total Energy        Delta E     RMS |[F,P]|

   @DF-RKS iter   0: -1648.33262578051745   -1.64833e+03   6.77900e-04 
   @DF-RKS iter   1: -1648.31784443547576    1.47813e-02   1.34650e-04 
   @DF-RKS iter   2: -1648.31788676686756   -4.23314e-05   8.12050e-05 DIIS
   @DF-RKS iter   3: -1648.31790385339036   -1.70865e-05   3.80233e-05 DIIS
   @DF-RKS iter   4: -1648.31790614721444   -2.29382e-06   1.29005e-05 DIIS
   @DF-RKS iter   5: -1648.31790670960527   -5.62391e-07   2.53835e-06 DIIS
   @DF-RKS iter   6: -1648.31790673088108   -2.12758e-08   4.62152e-07 DIIS
   @DF-RKS iter   7: -1648.31790673288106   -1.99998e-09   3.19047e-07 DIIS
   @DF-RKS iter   8: -1648.31790673329306   -4.12001e-10   9.65192e-08 DIIS
   @DF-RKS iter   9: -1648.31790673332694   -3.38787e-11   2.85552e-08 DIIS
   @DF-RKS iter  10: -1648.31790673332898   -2.04636e-12   1.05751e-08 DIIS
   @DF-RKS iter  11: -1648.31790673332875    2.27374e-13   1.96553e-09 DIIS

  ==> Post-Iterations <==

    Orbital Energies [Eh]
    ---------------------

    Doubly Occupied:                                                      

       1A   -102.699285     2A   -102.698200     3A   -102.696333  
       4A    -19.658901     5A    -19.655405     6A    -10.733353  
       7A    -10.684900     8A    -10.602201     9A     -9.841992  
      10A     -9.840955    11A     -9.839072    12A     -7.567311  
      13A     -7.566281    14A     -7.564457    15A     -7.560090  
      16A     -7.559803    17A     -7.559010    18A     -7.558791  
      19A     -7.557057    20A     -7.556886    21A     -1.237040  
      22A     -1.161242    23A     -1.055871    24A     -0.944519  
      25A     -0.941625    26A     -0.853276    27A     -0.782227  
      28A     -0.707110    29A     -0.634900    30A     -0.610461  
      31A     -0.602397    32A     -0.552913    33A     -0.544956  
      34A     -0.525155    35A     -0.494950    36A     -0.487115  
      37A     -0.434188    38A     -0.430199    39A     -0.422384  
      40A     -0.418864    41A     -0.397214    42A     -0.392554  
      43A     -0.379020    44A     -0.375273    45A     -0.365558  

    Virtual:                                                              

      46A     -0.005934    47A      0.003808    48A      0.010080  
      49A      0.016740    50A      0.027152    51A      0.033285  
      52A      0.033908    53A      0.045608    54A      0.052494  
      55A      0.061983    56A      0.070595    57A      0.076441  
      58A      0.082496    59A      0.100127    60A      0.102237  
      61A      0.105465    62A      0.111987    63A      0.117443  
      64A      0.120622    65A      0.127303    66A      0.131082  
      67A      0.133928    68A      0.137540    69A      0.142480  
      70A      0.147405    71A      0.152658    72A      0.166985  
      73A      0.177302    74A      0.185272    75A      0.187763  
      76A      0.206845    77A      0.212384    78A      0.218523  
      79A      0.227741    80A      0.241918    81A      0.256563  
      82A      0.261602    83A      0.265979    84A      0.287061  
      85A      0.297905    86A      0.302578    87A      0.319578  
      88A      0.327676    89A      0.349123    90A      0.353448  
      91A      0.356745    92A      0.371444    93A      0.406097  
      94A      0.413414    95A      0.435752    96A      0.438092  
      97A      0.446182    98A      0.470789    99A      0.480860  
     100A      0.485569   101A      0.489213   102A      0.497685  
     103A      0.509613   104A      0.514154   105A      0.524222  
     106A      0.536753   107A      0.558716   108A      0.560629  
     109A      0.591547   110A      0.604737   111A      0.617016  
     112A      0.639568   113A      0.673058   114A      0.686436  
     115A      0.699890   116A      0.720414   117A      0.747115  
     118A      0.853257   119A      0.870991   120A      0.885231  
     121A      0.910051   122A      0.918522   123A      0.926703  
     124A      0.936841   125A      0.950324   126A      0.955692  
     127A      0.965234   128A      0.979108   129A      0.982183  
     130A      1.006032   131A      1.031798   132A      1.042601  
     133A      1.060224   134A      1.071501   135A      1.095060  
     136A      1.142698   137A      1.159074   138A      1.182759  
     139A      1.193022   140A      1.229390   141A      1.249262  
     142A      1.292794   143A      1.301669   144A      1.335933  
     145A      1.377716   146A      1.391455   147A      1.396953  
     148A      1.404570   149A      1.477043   150A      1.504991  
     151A      1.542040   152A      1.578738   153A      1.589185  
     154A      1.601315   155A      1.620472   156A      1.631848  
     157A      1.702030   158A      1.731848   159A      1.744206  
     160A      1.764893   161A      1.783224   162A      1.822300  
     163A      1.844099   164A      1.872172   165A      1.936294  
     166A      1.978902   167A      2.022177   168A      2.048267  
     169A      2.093347   170A      2.138352   171A      2.173423  
     172A      2.209812   173A      2.289221   174A      2.311681  
     175A      2.323764   176A      2.352035   177A      2.364999  
     178A      2.374219   179A      2.458352   180A      2.491405  
     181A      2.507600   182A      2.542485   183A      2.556864  
     184A      2.557342   185A      2.578440   186A      2.605673  
     187A      2.638097   188A      2.664104   189A      2.796393  
     190A      2.869623   191A      2.932575   192A      2.965201  
     193A      3.008606   194A      3.082640   195A      3.117400  
     196A      3.146180   197A      3.176718   198A      3.191432  
     199A      3.246745   200A      3.257540   201A      3.361421  
     202A      3.507171   203A      3.777131   204A      3.825794  
[...]
         O           -0.606069650010    -0.257225366753    -2.010307440703    15.994914619560
         CL           1.240147716329     0.207168152969     1.480423632490    34.968852682000
         CL          -1.592337943982     0.419264617670     0.839724636985    34.968852682000
         H            1.134957438469     3.156242179326    -2.036696377072     1.007825032070
         C            1.110425277618     2.077882834915    -2.173876661829    12.000000000000
         H            0.565724747983     1.832431636267    -3.088411420434     1.007825032070
         H            2.134471819001     1.695935390609    -2.242477369468     1.007825032070
         O            0.457329839944     1.539823377682    -1.034305775017    15.994914619560
         H           -1.453086291395     0.155589312208    -1.797239437164     1.007825032070
         C           -0.034447017265    -0.298031685167     0.358168997560    12.000000000000
         CL          -0.166924010852    -2.067875389155     0.368260346200    34.968852682000
         H            1.271359612282    -0.328384628738    -1.342360067585     1.007825032070

  Nuclear repulsion =  681.709042858509065

  ==> Basis Set <==

  Basis Set: 6-311++G(D,P)
    Blend: 6-311++G(D,P)
    Number of shells: 117
    Number of basis function: 235
    Number of Cartesian functions: 243
    Spherical Harmonics?: true
    Max angular momentum: 2

  ==> DFJKGrad: Density-Fitted SCF Gradients <==

    Gradient:                    1
    J tasked:                  Yes
    K tasked:                  Yes
    wK tasked:                  No
    OpenMP threads:             16
    Integrals threads:          16
    Memory (MB):               375
    Schwarz Cutoff:          0E+00
    Fitting Condition:       1E-12

   => Auxiliary Basis Set <=

  Basis Set: (6-311++G(D,P) AUX)
    Blend: AUG-CC-PVTZ-JKFIT
    Number of shells: 346
    Number of basis function: 1188
    Number of Cartesian functions: 1470
    Spherical Harmonics?: true
    Max angular momentum: 4

  ==> DFT Potential <==

   => Composite Functional: M06-2X <= 

    Hybrid M06-2X Meta-GGA XC Functional

    Y. Zhao and D. G. Truhlar,  Theor. Chem. Acc., 120, 215, 2008


    Deriv               =              1
    GGA                 =           TRUE
    Meta                =           TRUE

    Exchange Hybrid     =           TRUE
    MP2 Hybrid          =          FALSE

   => Exchange Functionals <=

    1.0000   XC_HYB_MGGA_X_M06_2X

   => Exact (HF) Exchange <=

    0.5400               HF 

   => Correlation Functionals <=

    1.0000   XC_MGGA_C_M06_2X

   => Molecular Quadrature <=

    Radial Scheme       =       TREUTLER
    Pruning Scheme      =           FLAT
    Nuclear Scheme      =       TREUTLER

    BS radius alpha     =              1
    Pruning alpha       =              1
    Radial Points       =             75
    Spherical Points    =            302
    Total Points        =         294155
    Total Blocks        =           2261
    Max Points          =            256
    Max Functions       =            206


  -Total Gradient:
     Atom            X                  Y                   Z
    ------   -----------------  -----------------  -----------------
       1       -0.000004652156     0.000001779244     0.000009730546
       2        0.000012943606    -0.000005526474     0.000007904176
       3       -0.000026632403    -0.000000090791     0.000007476852
       4       -0.000010568882    -0.000007597240     0.000012925190
       5       -0.000014803243    -0.000012303436     0.000010282959
       6       -0.000025341107     0.000013238912     0.000040992016
       7       -0.000009620110    -0.000000299710     0.000007164031
       8       -0.000002722884     0.000004456007     0.000018578562
       9       -0.000010234073     0.000007310373     0.000003828412
      10       -0.000013213064    -0.000002912576     0.000015569461
      11        0.000000065490     0.000022438049     0.000020283922
      12        0.000000644789    -0.000011089326     0.000021271120
      13       -0.000004164407    -0.000000057768     0.000021208156


*** tstop() called on localhost.localdomain at Tue Mar 19 13:14:28 2019
Module time:
	user time   =      83.35 seconds =       1.39 minutes
	system time =       2.11 seconds =       0.04 minutes
	total time  =          6 seconds =       0.10 minutes
Total time:
	user time   =    5308.38 seconds =      88.47 minutes
	system time =     106.44 seconds =       1.77 minutes
	total time  =        378 seconds =       6.30 minutes

			-----------------------------------------
			 OPTKING 2.0: for geometry optimizations 
			  - R.A. King,  Bethel University        
			-----------------------------------------

	Previous internal coordinate definitions found.
	---Fragment 1 Geometry and Gradient---
	 C           0.6201695754        0.3101617047       -2.0368634687
	 O          -1.1453056560       -0.4860854976       -3.7989305058
	 CL          2.3435395482        0.3914910726        2.7975952261
	 CL         -3.0090826251        0.7922953046        1.5868495909
	 H           2.1447587312        5.9644333280       -3.8487983685
	 C           2.0983996657        3.9266294942       -4.1080315375
	 H           1.0690648403        3.4627939498       -5.8362517703
	 H           4.0335671763        3.2048534273       -4.2376680875
	 O           0.8642281499        2.9098444768       -1.9545546524
	 H          -2.7459351382        0.2940211893       -3.3962903315
	 C          -0.0650954287       -0.5631982639        0.6768413147
	 CL         -0.3154406655       -3.9077181624        0.6959111999
	 H           2.4025214836       -0.6205570146       -2.5366928995
	            -0.0000046522        0.0000017792        0.0000097305
	             0.0000129436       -0.0000055265        0.0000079042
	            -0.0000266324       -0.0000000908        0.0000074769
	            -0.0000105689       -0.0000075972        0.0000129252
	            -0.0000148032       -0.0000123034        0.0000102830
	            -0.0000253411        0.0000132389        0.0000409920
	            -0.0000096201       -0.0000002997        0.0000071640
	            -0.0000027229        0.0000044560        0.0000185786
	            -0.0000102341        0.0000073104        0.0000038284
	            -0.0000132131       -0.0000029126        0.0000155695
	             0.0000000655        0.0000224380        0.0000202839
	             0.0000006448       -0.0000110893        0.0000212711
	            -0.0000041644       -0.0000000578        0.0000212082

	---Fragment 1 Intrafragment Coordinates---
	 - Coordinate -           - BOHR/RAD -       - ANG/DEG -
	 R(1,2)           =         2.618357	       1.385575
	 R(1,9)           =         2.612411	       1.382428
	 R(1,11)          =         2.931986	       1.551540
	 R(1,13)          =         2.071918	       1.096412
	 R(2,10)          =         1.825568	       0.966049
	 R(3,11)          =         3.348216	       1.771800
	 R(4,11)          =         3.366384	       1.781413
	 R(5,6)           =         2.054749	       1.087327
	 R(6,7)           =         2.064320	       1.092391
	 R(6,8)           =         2.069454	       1.095108
	 R(6,9)           =         2.682255	       1.419388
	 R(11,12)         =         3.353930	       1.774824
	 B(1,2,10)        =         1.888948	     108.228736
	 B(1,9,6)         =         1.976779	     113.261107
	 B(1,11,3)        =         1.910466	     109.461639
	 B(1,11,4)        =         1.912032	     109.551336
	 B(1,11,12)       =         1.896257	     108.647529
	 B(2,1,9)         =         1.967972	     112.756483
	 B(2,1,11)        =         1.954860	     112.005248
	 B(2,1,13)        =         1.855719	     106.324871
	 B(3,11,4)        =         1.920993	     110.064780
	 B(3,11,12)       =         1.911795	     109.537783
	 B(4,11,12)       =         1.912096	     109.555044
	 B(5,6,7)         =         1.917405	     109.859237
	 B(5,6,8)         =         1.909967	     109.433044
	 B(5,6,9)         =         1.859847	     106.561369
	 B(7,6,8)         =         1.912895	     109.600782
	 B(7,6,9)         =         1.936424	     110.948910
	 B(8,6,9)         =         1.926604	     110.386254
	 B(9,1,11)        =         1.864078	     106.803814
	 B(9,1,13)        =         1.954387	     111.978103
	 B(11,1,13)       =         1.865577	     106.889677
	 D(1,9,6,5)       =         3.122094	     178.882822
	 D(1,9,6,7)       =         1.035364	      59.321995
	 D(1,9,6,8)       =        -1.088715	     -62.378786
	 D(2,1,9,6)       =        -1.249511	     -71.591680
	 D(2,1,11,3)      =         3.093878	     177.266146
	 D(2,1,11,4)      =        -1.081435	     -61.961674
	 D(2,1,11,12)     =         1.006866	      57.689150
	 D(3,11,1,9)      =        -1.026703	     -58.825733
	 D(3,11,1,13)     =         1.067994	      61.191537
	 D(4,11,1,9)      =         1.081169	      61.946448
	 D(4,11,1,13)     =        -3.107319	    -178.036283
	 D(6,9,1,11)      =         2.879173	     164.964465
	 D(6,9,1,13)      =         0.842563	      48.275276
	 D(9,1,2,10)      =        -1.002659	     -57.448108
	 D(9,1,11,12)     =        -3.113715	    -178.402728
	 D(10,2,1,11)     =         1.100596	      63.059514
	 D(10,2,1,13)     =         3.132443	     179.475784
	 D(12,11,1,13)    =        -1.019018	     -58.385459
	 R(3,6)           =         7.761764	       4.107349
	 R(4,6)           =         8.266928	       4.374670

	Current energy   :     -1648.3194784560

	Energy change for the previous step:
		Projected    :        -0.0000006388
		Actual       :        -0.0000008686
	Energy ratio indicates good step: Trust radius increased to 7.500e-01.


	Performing BFGS update.
	Previous computed or guess Hessian on step 1.
	Steps to be used in Hessian update: 13 12
	Taking RFO optimization step.
	Going to follow RFO solution 1.
	Using RFO vector 1.
	Norm of target step-size    0.00063
	Projected energy change by RFO approximation:        -0.0000000066

	Back-transformation to cartesian coordinates...
	Successfully converged to displaced geometry.

	--- Internal Coordinate Step in ANG or DEG, aJ/ANG or AJ/DEG ---
	 ---------------------------------------------------------------------------
	   Coordinate                Previous        Force       Change         New 
	   ----------                --------       ------       ------       ------
	    1 R(1,2)          =      1.385575     0.000038     0.000005     1.385579
	    2 R(1,9)          =      1.382428     0.000007     0.000004     1.382432
	    3 R(1,11)         =      1.551540    -0.000031    -0.000001     1.551539
	    4 R(1,13)         =      1.096412    -0.000006    -0.000000     1.096412
	    5 R(2,10)         =      0.966049    -0.000093    -0.000010     0.966039
	    6 R(3,11)         =      1.771800     0.000139     0.000031     1.771831
	    7 R(4,11)         =      1.781413     0.000021     0.000007     1.781421
	    8 R(5,6)          =      1.087327     0.000130     0.000020     1.087346
	    9 R(6,7)          =      1.092391    -0.000059    -0.000015     1.092377
	   10 R(6,8)          =      1.095108    -0.000060    -0.000014     1.095094
	   11 R(6,9)          =      1.419388     0.000123     0.000028     1.419416
	   12 R(11,12)        =      1.774824    -0.000092    -0.000022     1.774802
	   13 B(1,2,10)       =    108.228736     0.000000     0.001567   108.230303
	   14 B(1,9,6)        =    113.261107     0.000000     0.000942   113.262050
	   15 B(1,11,3)       =    109.461639    -0.000000     0.000479   109.462119
	   16 B(1,11,4)       =    109.551336    -0.000001    -0.001855   109.549481
	   17 B(1,11,12)      =    108.647529    -0.000000    -0.001121   108.646408
	   18 B(2,1,9)        =    112.756483     0.000000     0.001007   112.757490
	   19 B(2,1,11)       =    112.005248    -0.000000    -0.001778   112.003469
	   20 B(2,1,13)       =    106.324871     0.000000     0.000056   106.324928
	   21 B(3,11,4)       =    110.064780     0.000000     0.000281   110.065061
	   22 B(3,11,12)      =    109.537783     0.000001     0.002498   109.540281
	   23 B(4,11,12)      =    109.555044     0.000000    -0.000299   109.554746
	   24 B(5,6,7)        =    109.859237     0.000000     0.001056   109.860293
	   25 B(5,6,8)        =    109.433044     0.000000     0.000986   109.434030
	   26 B(5,6,9)        =    106.561369    -0.000000    -0.001584   106.559785
	   27 B(7,6,8)        =    109.600782     0.000000     0.000872   109.601654
	   28 B(7,6,9)        =    110.948910    -0.000000    -0.001254   110.947656
	   29 B(8,6,9)        =    110.386254     0.000000    -0.000098   110.386156
	   30 B(9,1,11)       =    106.803814     0.000000     0.000951   106.804766
	   31 B(9,1,13)       =    111.978103    -0.000000    -0.002186   111.975917
	   32 B(11,1,13)      =    106.889677     0.000000     0.001918   106.891596
	   33 D(1,9,6,5)      =    178.882822    -0.000000    -0.015727   178.867095
	   34 D(1,9,6,7)      =     59.321995    -0.000000    -0.015337    59.306659
	   35 D(1,9,6,8)      =    -62.378786    -0.000000    -0.015529   -62.394315
	   36 D(2,1,9,6)      =    -71.591680    -0.000000     0.007312   -71.584368
	   37 D(2,1,11,3)     =    177.266146     0.000000     0.000123   177.266269
	   38 D(2,1,11,4)     =    -61.961674    -0.000000    -0.000387   -61.962061
	   39 D(2,1,11,12)    =     57.689150    -0.000000    -0.002519    57.686631
	   40 D(3,11,1,9)     =    -58.825733     0.000000     0.000911   -58.824822
	   41 D(3,11,1,13)    =     61.191537     0.000000    -0.000140    61.191397
	   42 D(4,11,1,9)     =     61.946448     0.000000     0.000400    61.946848
	   43 D(4,11,1,13)    =   -178.036283    -0.000000    -0.000651  -178.036933
	   44 D(6,9,1,11)     =    164.964465     0.000000     0.008239   164.972703
	   45 D(6,9,1,13)     =     48.275276    -0.000000     0.006532    48.281808
	   46 D(9,1,2,10)     =    -57.448108     0.000000     0.002029   -57.446078
	   47 D(9,1,11,12)    =   -178.402728    -0.000000    -0.001731  -178.404460
	   48 D(10,2,1,11)    =     63.059514     0.000000     0.002698    63.062212
	   49 D(10,2,1,13)    =    179.475784     0.000000     0.004097   179.479881
	   50 D(12,11,1,13)   =    -58.385459    -0.000000    -0.002782   -58.388241
	   51 R(3,6)          =      4.107349     0.000024     0.000156     4.107504
	   52 R(4,6)          =      4.374670    -0.000006    -0.000025     4.374645
	 ---------------------------------------------------------------------------
	Successfully symmetrized geometry.

  ==> Convergence Check <==

  Measures of convergence in internal coordinates in au.
  Criteria marked as inactive (o), active & met (*), and active & unmet ( ).
  ---------------------------------------------------------------------------------------------
   Step     Total Energy     Delta E     MAX Force     RMS Force      MAX Disp      RMS Disp   
  ---------------------------------------------------------------------------------------------
    Convergence Criteria    1.00e-06 *    3.00e-04 *             o    1.20e-03 *             o
  ---------------------------------------------------------------------------------------------
     14   -1648.31947846   -8.69e-07 *    1.69e-05 *    5.62e-06 o    2.94e-04 *    8.72e-05 o  ~
  ---------------------------------------------------------------------------------------------


  **** Optimization is complete! (in 14 steps) ****

  ==> Optimization Summary <==

  Measures of convergence in internal coordinates in au.
  --------------------------------------------------------------------------------------------------------------- ~
   Step         Total Energy             Delta E       MAX Force       RMS Force        MAX Disp        RMS Disp  ~
  --------------------------------------------------------------------------------------------------------------- ~
      1   -1648.317222377771  -1648.317222377771      0.00806059      0.00169620      0.19276354      0.05191746  ~
      2   -1648.317439996061     -0.000217618290      0.00943330      0.00227087      0.03356987      0.01522652  ~
      3   -1648.317906733329     -0.000466737267      0.00078801      0.00027717      0.08259784      0.02157802  ~
      4   -1648.318028373226     -0.000121639897      0.00154918      0.00039882      0.24529148      0.05701265  ~
      5   -1648.318320681858     -0.000292308633      0.00472742      0.00136643      0.45892225      0.09925798  ~
      6   -1648.316631167532      0.001689514326      0.02145953      0.00535855      0.08087053      0.02250148  ~
      7   -1648.318579478693     -0.001948311161      0.00664516      0.00202684      0.09465124      0.03230023  ~
      8   -1648.319164052599     -0.000584573906      0.00280010      0.00080635      0.16129445      0.03480215  ~
      9   -1648.319372146145     -0.000208093546      0.00262072      0.00069575      0.03653792      0.01317790  ~
     10   -1648.319435089860     -0.000062943715      0.00070567      0.00023764      0.04787282      0.01546384  ~
     11   -1648.319466833067     -0.000031743207      0.00117504      0.00023911      0.02332605      0.00834303  ~
     12   -1648.319478726822     -0.000011893755      0.00028357      0.00007728      0.01081387      0.00334954  ~
     13   -1648.319477587404      0.000001139417      0.00004979      0.00001764      0.00408084      0.00124881  ~
     14   -1648.319478456028     -0.000000868624      0.00001685      0.00000562      0.00029418      0.00008724  ~
  --------------------------------------------------------------------------------------------------------------- ~

	Writing optimization data to binary file.
	Final energy is  -1648.3194784560283
	Final (previous) structure:
	Cartesian Geometry (in Angstrom)
	    C     0.3281796048   0.1641305051  -1.0778617246
	    O    -0.6060696500  -0.2572253668  -2.0103074407
	   CL     1.2401477163   0.2071681530   1.4804236325
	   CL    -1.5923379440   0.4192646177   0.8397246370
	    H     1.1349574385   3.1562421793  -2.0366963771
	    C     1.1104252776   2.0778828349  -2.1738766618
	    H     0.5657247480   1.8324316363  -3.0884114204
	    H     2.1344718190   1.6959353906  -2.2424773695
	    O     0.4573298399   1.5398233777  -1.0343057750
	    H    -1.4530862914   0.1555893122  -1.7972394372
	    C    -0.0344470173  -0.2980316852   0.3581689976
	   CL    -0.1669240109  -2.0678753892   0.3682603462
	    H     1.2713596123  -0.3283846287  -1.3423600676
	Saving final (previous) structure.
	Removing binary optimization data file.
			--------------------------
			 OPTKING Finished Execution 
			--------------------------

    Final optimized geometry and variables:
    Molecular point group: c1
    Full point group: C1

    Geometry (in Angstrom), charge = 0, multiplicity = 1:

    C            0.328179604781     0.164130505103    -1.077861724629
    O           -0.606069650010    -0.257225366753    -2.010307440703
    CL           1.240147716329     0.207168152969     1.480423632490
    CL          -1.592337943982     0.419264617670     0.839724636985
    H            1.134957438469     3.156242179326    -2.036696377072
    C            1.110425277618     2.077882834915    -2.173876661829
    H            0.565724747983     1.832431636267    -3.088411420434
    H            2.134471819001     1.695935390609    -2.242477369468
    O            0.457329839944     1.539823377682    -1.034305775017
    H           -1.453086291395     0.155589312208    -1.797239437164
    C           -0.034447017265    -0.298031685167     0.358168997560
    CL          -0.166924010852    -2.067875389155     0.368260346200
    H            1.271359612282    -0.328384628738    -1.342360067585

	Removing binary optimization data file.
	Cleaning optimization helper files.

    Psi4 stopped on: Tuesday, 19 March 2019 01:14PM
    Psi4 wall time for execution: 0:06:18.42

*** Psi4 exiting successfully. Buy a developer a beer!
