
    -----------------------------------------------------------------------
          Psi4: An Open-Source Ab Initio Electronic Structure Package
                               Psi4 1.2.1 release

                         Git: Rev {HEAD} 406f4de 


    R. M. Parrish, L. A. Burns, D. G. A. Smith, A. C. Simmonett,
    A. E. DePrince III, E. G. Hohenstein, U. Bozkaya, A. Yu. Sokolov,
    R. Di Remigio, R. M. Richard, J. F. Gonthier, A. M. James,
    H. R. McAlexander, A. Kumar, M. Saitow, X. Wang, B. P. Pritchard,
    P. Verma, H. F. Schaefer III, K. Patkowski, R. A. King, E. F. Valeev,
    F. A. Evangelista, J. M. Turney, T. D. Crawford, and C. D. Sherrill,
    J. Chem. Theory Comput. 13(7) pp 3185--3197 (2017).
    (doi: 10.1021/acs.jctc.7b00174)


                         Additional Contributions by
    P. Kraus, H. Kruse, M. H. Lechner, M. C. Schieber, and R. A. Shaw

    -----------------------------------------------------------------------


    Psi4 started on: Tuesday, 15 January 2019 09:21AM

    Process ID: 31745
    Host:       localhost.localdomain
    PSIDATADIR: /root/psi4conda/share/psi4
    Memory:     500.0 MiB
    Threads:    1
    
  ==> Input File <==

--------------------------------------------------------------------------
molecule{
0 1
    C            0.811580336497    -0.124634181555    -0.260510086364
    O           -0.364471495023     0.767971569374    -0.798959571635
    C           -1.568302374920    -0.333362835762     0.729817345686
    H           -1.975322286299    -0.307097463287     1.740649404246
    N           -1.253830822057     0.843192549785     0.235858782153
    O            0.499825810587    -0.734344144268     0.810883157421
    N            1.795452632562    -0.029413844184    -1.067968023524
    C           -1.063160988176     2.027823787532     1.069913515338
    H           -1.167983393922     2.902719484811     0.429114500978
    H           -1.826213365913     2.036934509191     1.849983007916
    H           -0.058645787040     1.994040324688     1.502194332139
    C            2.945515185481    -0.862535846558    -0.704572726705
    H            3.531243081885    -1.047657558084    -1.607806122951
    H            3.587029276640    -0.340716622580     0.016089390371
    H            2.646880975375    -1.822507507368    -0.263330463882
    C           -1.848673313920    -1.527890094426    -0.110108022860
    H           -1.521507165763    -2.424552992305     0.419907730297
    H           -2.933880463659    -1.593259477446    -0.266489000101
    H           -1.346128067338    -1.467786969069    -1.074905430339

}

set{
   basis 6-31+G(d)
   freeze_core True
   normal_modes_write True
}

frequencies('mp2')
--------------------------------------------------------------------------
gradient() will perform analytic gradient computation.

*** tstart() called on localhost.localdomain
*** at Tue Jan 15 09:21:35 2019

    SCF Algorithm Type (re)set to DF.

*** tstart() called on localhost.localdomain
*** at Tue Jan 15 09:21:35 2019

   => Loading Basis Set <=

    Name: 6-31+G(D)
    Role: ORBITAL
    Keyword: BASIS
    atoms 1, 3, 8, 12, 16       entry C          line   119 file /root/psi4conda/share/psi4/basis/6-31pg_d_.gbs 
    atoms 2, 6                  entry O          line   157 file /root/psi4conda/share/psi4/basis/6-31pg_d_.gbs 
    atoms 4, 9-11, 13-15, 17-19 entry H          line    46 file /root/psi4conda/share/psi4/basis/6-31pg_d_.gbs 
    atoms 5, 7                  entry N          line   138 file /root/psi4conda/share/psi4/basis/6-31pg_d_.gbs 


         ---------------------------------------------------------
                                   SCF
            by Justin Turney, Rob Parrish, Andy Simmonett
                             and Daniel Smith
                              RHF Reference
                        1 Threads,    500 MiB Core
         ---------------------------------------------------------

  ==> Geometry <==

    Molecular point group: c1
    Full point group: C1

    Geometry (in Angstrom), charge = 0, multiplicity = 1:

       Center              X                  Y                   Z               Mass       
    ------------   -----------------  -----------------  -----------------  -----------------
         C            0.811580336497    -0.124634181555    -0.260510086364    12.000000000000
         O           -0.364471495023     0.767971569374    -0.798959571635    15.994914619560
         C           -1.568302374920    -0.333362835762     0.729817345686    12.000000000000
         H           -1.975322286299    -0.307097463287     1.740649404246     1.007825032070
         N           -1.253830822057     0.843192549785     0.235858782153    14.003074004780
         O            0.499825810587    -0.734344144268     0.810883157421    15.994914619560
         N            1.795452632562    -0.029413844184    -1.067968023524    14.003074004780
         C           -1.063160988176     2.027823787532     1.069913515338    12.000000000000
         H           -1.167983393922     2.902719484811     0.429114500978     1.007825032070
         H           -1.826213365913     2.036934509191     1.849983007916     1.007825032070
         H           -0.058645787040     1.994040324688     1.502194332139     1.007825032070
         C            2.945515185481    -0.862535846558    -0.704572726705    12.000000000000
         H            3.531243081885    -1.047657558084    -1.607806122951     1.007825032070
         H            3.587029276640    -0.340716622580     0.016089390371     1.007825032070
         H            2.646880975375    -1.822507507368    -0.263330463882     1.007825032070
         C           -1.848673313920    -1.527890094426    -0.110108022860    12.000000000000
         H           -1.521507165763    -2.424552992305     0.419907730297     1.007825032070
         H           -2.933880463659    -1.593259477446    -0.266489000101     1.007825032070
         H           -1.346128067338    -1.467786969069    -1.074905430339     1.007825032070

  Running in c1 symmetry.

  Rotational constants: A =      0.09111  B =      0.04075  C =      0.03378 [cm^-1]
  Rotational constants: A =   2731.45300  B =   1221.57133  C =   1012.68475 [MHz]
  Nuclear repulsion =  484.679183474087779

  Charge       = 0
  Multiplicity = 1
  Electrons    = 70
  Nalpha       = 35
  Nbeta        = 35

  ==> Algorithm <==

  SCF Algorithm Type is DF.
  DIIS enabled.
  MOM disabled.
  Fractional occupation disabled.
  Guess Type is SAD.
  Energy threshold   = 1.00e-10
  Density threshold  = 1.00e-10
  Integral threshold = 0.00e+00

  ==> Primary Basis <==

  Basis Set: 6-31+G(D)
    Blend: 6-31+G(D)
    Number of shells: 92
    Number of basis function: 191
    Number of Cartesian functions: 191
    Spherical Harmonics?: false
    Max angular momentum: 2

   => Loading Basis Set <=

    Name: (6-31+G(D) AUX)
    Role: JKFIT
    Keyword: DF_BASIS_SCF
    atoms 1, 3, 8, 12, 16       entry C          line   194 file /root/psi4conda/share/psi4/basis/heavy-aug-cc-pvdz-jkfit.gbs 
    atoms 2, 6                  entry O          line   310 file /root/psi4conda/share/psi4/basis/heavy-aug-cc-pvdz-jkfit.gbs 
    atoms 4, 9-11, 13-15, 17-19 entry H          line   116 file /root/psi4conda/share/psi4/basis/heavy-aug-cc-pvdz-jkfit.gbs 
    atoms 5, 7                  entry N          line   252 file /root/psi4conda/share/psi4/basis/heavy-aug-cc-pvdz-jkfit.gbs 

  ==> Pre-Iterations <==

   -------------------------------------------------------
    Irrep   Nso     Nmo     Nalpha   Nbeta   Ndocc  Nsocc
   -------------------------------------------------------
     A        191     191       0       0       0       0
   -------------------------------------------------------
    Total     191     191      35      35      35       0
   -------------------------------------------------------

  ==> Integral Setup <==

  ==> DiskDFJK: Density-Fitted J/K Matrices <==

    J tasked:                  Yes
    K tasked:                  Yes
    wK tasked:                  No
    OpenMP threads:              1
    Integrals threads:           1
    Memory (MB):               375
    Algorithm:                Core
    Integral Cache:           NONE
    Schwarz Cutoff:          1E-12
    Fitting Condition:       1E-12

   => Auxiliary Basis Set <=

  Basis Set: (6-31+G(D) AUX)
    Blend: HEAVY-AUG-CC-PVDZ-JKFIT
    Number of shells: 342
    Number of basis function: 1159
    Number of Cartesian functions: 1159
    Spherical Harmonics?: false
    Max angular momentum: 3

  Minimum eigenvalue in the overlap matrix is 5.6661265924E-05.
  Using Symmetric Orthogonalization.

  SCF Guess: Superposition of Atomic Densities via on-the-fly atomic UHF.

  ==> Iterations <==

                           Total Energy        Delta E     RMS |[F,P]|

   @DF-RHF iter   0:  -456.80897401635161   -4.56809e+02   2.79535e-02 
   @DF-RHF iter   1:  -453.39714898061101    3.41183e+00   3.18383e-03 
   @DF-RHF iter   2:  -453.60082018307241   -2.03671e-01   1.67055e-03 DIIS
   @DF-RHF iter   3:  -453.64535122415236   -4.45310e-02   5.15228e-04 DIIS
   @DF-RHF iter   4:  -453.65463418458120   -9.28296e-03   1.52387e-04 DIIS
   @DF-RHF iter   5:  -453.65563803844771   -1.00385e-03   6.67250e-05 DIIS
   @DF-RHF iter   6:  -453.65584323155292   -2.05193e-04   3.06311e-05 DIIS
   @DF-RHF iter   7:  -453.65588974181270   -4.65103e-05   1.09078e-05 DIIS
   @DF-RHF iter   8:  -453.65589563275375   -5.89094e-06   4.65167e-06 DIIS
   @DF-RHF iter   9:  -453.65589681910330   -1.18635e-06   1.86364e-06 DIIS
   @DF-RHF iter  10:  -453.65589700083763   -1.81734e-07   6.35719e-07 DIIS
   @DF-RHF iter  11:  -453.65589702825321   -2.74156e-08   1.71393e-07 DIIS
   @DF-RHF iter  12:  -453.65589703041871   -2.16551e-09   6.29902e-08 DIIS
   @DF-RHF iter  13:  -453.65589703062136   -2.02647e-10   2.73005e-08 DIIS
   @DF-RHF iter  14:  -453.65589703065808   -3.67208e-11   9.36896e-09 DIIS
   @DF-RHF iter  15:  -453.65589703065899   -9.09495e-13   3.36261e-09 DIIS
   @DF-RHF iter  16:  -453.65589703066115   -2.16005e-12   1.23681e-09 DIIS
   @DF-RHF iter  17:  -453.65589703066166   -5.11591e-13   4.04970e-10 DIIS
   @DF-RHF iter  18:  -453.65589703066109    5.68434e-13   1.87397e-10 DIIS
   @DF-RHF iter  19:  -453.65589703066235   -1.25056e-12   8.53701e-11 DIIS

  ==> Post-Iterations <==

    Orbital Energies [Eh]
    ---------------------

    Doubly Occupied:                                                      

       1A    -20.627604     2A    -20.545670     3A    -15.696838  
       4A    -15.513962     5A    -11.390531     6A    -11.366300  
       7A    -11.296568     8A    -11.267345     9A    -11.220196  
      10A     -1.485783    11A     -1.350388    12A     -1.229445  
      13A     -1.163764    14A     -1.077627    15A     -0.976557  
      16A     -0.913514    17A     -0.837762    18A     -0.762079  
      19A     -0.728472    20A     -0.699502    21A     -0.678266  
      22A     -0.632309    23A     -0.618062    24A     -0.612792  
      25A     -0.592569    26A     -0.588897    27A     -0.576901  
      28A     -0.567940    29A     -0.534644    30A     -0.528411  
      31A     -0.493786    32A     -0.456869    33A     -0.439189  
      34A     -0.379988    35A     -0.336792  

    Virtual:                                                              

      36A      0.050053    37A      0.070866    38A      0.074800  
      39A      0.081845    40A      0.096949    41A      0.103716  
      42A      0.113511    43A      0.117248    44A      0.119615  
      45A      0.131185    46A      0.139420    47A      0.144251  
      48A      0.158038    49A      0.158436    50A      0.169924  
      51A      0.181488    52A      0.198215    53A      0.210615  
      54A      0.222209    55A      0.229244    56A      0.244206  
      57A      0.249779    58A      0.276115    59A      0.276537  
      60A      0.282547    61A      0.305142    62A      0.316139  
      63A      0.318416    64A      0.338731    65A      0.347434  
      66A      0.354160    67A      0.361113    68A      0.363972  
      69A      0.374741    70A      0.381974    71A      0.390778  
      72A      0.408042    73A      0.409306    74A      0.416967  
      75A      0.419326    76A      0.430888    77A      0.447249  
      78A      0.448940    79A      0.464117    80A      0.472816  
      81A      0.477876    82A      0.486781    83A      0.505573  
      84A      0.529775    85A      0.533913    86A      0.551029  
      87A      0.582609    88A      0.595957    89A      0.601718  
      90A      0.656679    91A      0.798069    92A      0.834495  
      93A      0.860551    94A      0.897652    95A      0.919236  
      96A      0.934616    97A      0.952865    98A      0.970376  
      99A      0.978681   100A      0.983588   101A      0.993082  
     102A      1.018672   103A      1.043646   104A      1.051840  
     105A      1.102284   106A      1.114122   107A      1.157708  
     108A      1.184097   109A      1.196078   110A      1.205719  
     111A      1.222848   112A      1.249591   113A      1.264878  
     114A      1.286933   115A      1.293543   116A      1.298044  
     117A      1.329484   118A      1.347701   119A      1.350153  
     120A      1.365102   121A      1.382725   122A      1.391810  
     123A      1.435790   124A      1.445450   125A      1.480947  
     126A      1.510463   127A      1.553662   128A      1.582968  
     129A      1.597480   130A      1.667969   131A      1.671247  
     132A      1.686964   133A      1.705212   134A      1.733590  
     135A      1.741316   136A      1.800528   137A      1.816943  
     138A      1.829711   139A      1.838974   140A      1.885229  
     141A      1.935439   142A      1.948956   143A      2.014783  
     144A      2.070934   145A      2.085339   146A      2.133223  
     147A      2.160449   148A      2.202485   149A      2.237980  
     150A      2.262484   151A      2.301544   152A      2.329971  
     153A      2.355489   154A      2.364325   155A      2.388020  
     156A      2.460363   157A      2.476336   158A      2.498184  
     159A      2.535502   160A      2.552838   161A      2.564276  
     162A      2.580729   163A      2.593424   164A      2.648553  
     165A      2.659892   166A      2.690650   167A      2.708511  
     168A      2.748919   169A      2.765296   170A      2.794413  
     171A      2.897292   172A      2.954961   173A      3.058869  
     174A      3.091068   175A      3.122980   176A      3.165858  
     177A      3.199291   178A      3.272477   179A      3.338125  
     180A      3.409563   181A      3.502525   182A      3.659975  
     183A      4.550676   184A      4.669886   185A      4.698930  
     186A      4.791339   187A      4.809304   188A      4.875678  
     189A      4.908609   190A      4.945670   191A      5.098974  

    Final Occupation by Irrep:
              A 
    DOCC [    35 ]

  Energy converged.

  @DF-RHF Final Energy:  -453.65589703066235

   => Energetics <=

    Nuclear Repulsion Energy =            484.6791834740877789
    One-Electron Energy =               -1580.2955200892374705
    Two-Electron Energy =                 641.9604395844874034
    Total Energy =                       -453.6558970306623451



Properties will be evaluated at   0.000000,   0.000000,   0.000000 [a0]

Properties computed using the SCF density matrix

  Nuclear Dipole Moment: [e a0]
     X:    -0.9989      Y:    -1.9427      Z:     2.5762

  Electronic Dipole Moment: [e a0]
     X:    -1.2861      Y:     1.9368      Z:    -1.1085

  Dipole Moment: [e a0]
     X:    -2.2850      Y:    -0.0059      Z:     1.4677     Total:     2.7157

  Dipole Moment: [D]
     X:    -5.8078      Y:    -0.0149      Z:     3.7306     Total:     6.9027


*** tstop() called on localhost.localdomain at Tue Jan 15 09:21:51 2019
Module time:
	user time   =      15.26 seconds =       0.25 minutes
	system time =       0.50 seconds =       0.01 minutes
	total time  =         16 seconds =       0.27 minutes
Total time:
	user time   =      15.27 seconds =       0.25 minutes
	system time =       0.50 seconds =       0.01 minutes
	total time  =         16 seconds =       0.27 minutes

  //>>>>>>>>>>>>>>>>>>>>>>>>>>>>>>>>>>>//
  //               DFMP2               //
  //<<<<<<<<<<<<<<<<<<<<<<<<<<<<<<<<<<<//

   => Loading Basis Set <=

    Name: (6-31+G(D) AUX)
    Role: RIFIT
    Keyword: DF_BASIS_MP2
    atoms 1, 3, 8, 12, 16       entry C          line   116 file /root/psi4conda/share/psi4/basis/heavy-aug-cc-pvdz-ri.gbs 
    atoms 2, 6                  entry O          line   208 file /root/psi4conda/share/psi4/basis/heavy-aug-cc-pvdz-ri.gbs 
    atoms 4, 9-11, 13-15, 17-19 entry H          line    44 file /root/psi4conda/share/psi4/basis/heavy-aug-cc-pvdz-ri.gbs 
    atoms 5, 7                  entry N          line   162 file /root/psi4conda/share/psi4/basis/heavy-aug-cc-pvdz-ri.gbs 

	 --------------------------------------------------------
	                          DF-MP2                         
	      2nd-Order Density-Fitted Moller-Plesset Theory     
	              RMP2 Wavefunction,   1 Threads             
	                                                         
	        Rob Parrish, Justin Turney, Andy Simmonett,      
	           Ed Hohenstein, and C. David Sherrill          
	 --------------------------------------------------------

   => Auxiliary Basis Set <=

  Basis Set: (6-31+G(D) AUX)
    Blend: HEAVY-AUG-CC-PVDZ-RI
    Number of shells: 258
    Number of basis function: 788
    Number of Cartesian functions: 924
    Spherical Harmonics?: true
    Max angular momentum: 3

	 --------------------------------------------------------
	                 NBF =   191, NAUX =   788
	 --------------------------------------------------------
	   CLASS    FOCC     OCC    AOCC    AVIR     VIR    FVIR
	   PAIRS       9      35      26     156     156       0
	 --------------------------------------------------------


         ------------------------------------------------------------
                                     CPHF                           
                                  Rob Parrish                       
         ------------------------------------------------------------

  ==> Geometry <==

    Molecular point group: c1
    Full point group: C1

    Geometry (in Angstrom), charge = 0, multiplicity = 1:

       Center              X                  Y                   Z               Mass       
    ------------   -----------------  -----------------  -----------------  -----------------
         C            0.811580336497    -0.124634181555    -0.260510086364    12.000000000000
         O           -0.364471495023     0.767971569374    -0.798959571635    15.994914619560
         C           -1.568302374920    -0.333362835762     0.729817345686    12.000000000000
         H           -1.975322286299    -0.307097463287     1.740649404246     1.007825032070
         N           -1.253830822057     0.843192549785     0.235858782153    14.003074004780
         O            0.499825810587    -0.734344144268     0.810883157421    15.994914619560
         N            1.795452632562    -0.029413844184    -1.067968023524    14.003074004780
         C           -1.063160988176     2.027823787532     1.069913515338    12.000000000000
         H           -1.167983393922     2.902719484811     0.429114500978     1.007825032070
         H           -1.826213365913     2.036934509191     1.849983007916     1.007825032070
         H           -0.058645787040     1.994040324688     1.502194332139     1.007825032070
         C            2.945515185481    -0.862535846558    -0.704572726705    12.000000000000
         H            3.531243081885    -1.047657558084    -1.607806122951     1.007825032070
         H            3.587029276640    -0.340716622580     0.016089390371     1.007825032070
         H            2.646880975375    -1.822507507368    -0.263330463882     1.007825032070
         C           -1.848673313920    -1.527890094426    -0.110108022860    12.000000000000
         H           -1.521507165763    -2.424552992305     0.419907730297     1.007825032070
         H           -2.933880463659    -1.593259477446    -0.266489000101     1.007825032070
         H           -1.346128067338    -1.467786969069    -1.074905430339     1.007825032070

  Nuclear repulsion =  484.679183474087779
  Reference energy  = -453.655897030662345

  ==> Basis Set <==

  Basis Set: 6-31+G(D)
    Blend: 6-31+G(D)
    Number of shells: 92
    Number of basis function: 191
    Number of Cartesian functions: 191
    Spherical Harmonics?: false
    Max angular momentum: 2

  ==> CGRSolver (by Rob Parrish) <==

   Number of roots    =         1
   Preconditioning    =    JACOBI
   Convergence cutoff =     1E-06
   Maximum iterations =       100

  ==> CPHFRHamiltonian (by Rob Parrish) <== 

  ==> DiskDFJK: Density-Fitted J/K Matrices <==

    J tasked:                  Yes
    K tasked:                  Yes
    wK tasked:                  No
    OpenMP threads:              1
    Integrals threads:           1
    Memory (MB):               375
    Algorithm:                Core
    Integral Cache:           NONE
    Schwarz Cutoff:          1E-12
    Fitting Condition:       1E-12

   => Auxiliary Basis Set <=

  Basis Set: (6-31+G(D) AUX)
    Blend: HEAVY-AUG-CC-PVDZ-JKFIT
    Number of shells: 342
    Number of basis function: 1159
    Number of Cartesian functions: 1159
    Spherical Harmonics?: false
    Max angular momentum: 3

  ==> CPHF Iterations <==

  => Iterations <=

             Iter  Converged  Remaining    Residual
  CGR           1          0          1   1.785E-01
  CGR           2          0          1   4.835E-02
  CGR           3          0          1   2.621E-02
  CGR           4          0          1   7.645E-03
  CGR           5          0          1   3.182E-03
  CGR           6          0          1   9.499E-04
  CGR           7          0          1   4.289E-04
  CGR           8          0          1   1.540E-04
  CGR           9          0          1   5.717E-05
  CGR          10          0          1   2.177E-05
  CGR          11          0          1   6.967E-06
  CGR          12          0          1   2.309E-06
  CGR          13          1          0   9.451E-07

    CGRSolver converged.

  ==> DFCorrGrad: Density-Fitted Correlated Gradients <==

    OpenMP threads:              1
    Integrals threads:           1
    Memory (MB):               375
    Schwarz Cutoff:          0E+00
    Fitting Condition:       1E-12

   => Auxiliary Basis Set <=

  Basis Set: (6-31+G(D) AUX)
    Blend: HEAVY-AUG-CC-PVDZ-JKFIT
    Number of shells: 342
    Number of basis function: 1159
    Number of Cartesian functions: 1159
    Spherical Harmonics?: false
    Max angular momentum: 3

	-----------------------------------------------------------
	 ==================> DF-MP2 Energies <==================== 
	-----------------------------------------------------------
	 Reference Energy          =    -453.6558970306623451 [Eh]
	 Singles Energy            =      -0.0000000000000000 [Eh]
	 Same-Spin Energy          =      -0.3609869229516751 [Eh]
	 Opposite-Spin Energy      =      -1.0024654660789341 [Eh]
	 Correlation Energy        =      -1.3634523890306092 [Eh]
	 Total Energy              =    -455.0193494196929578 [Eh]
	-----------------------------------------------------------
	 ================> DF-SCS-MP2 Energies <================== 
	-----------------------------------------------------------
	 SCS Same-Spin Scale       =       0.3333333333333333 [-]
	 SCS Opposite-Spin Scale   =       1.2000000000000000 [-]
	 SCS Same-Spin Energy      =      -0.1203289743172250 [Eh]
	 SCS Opposite-Spin Energy  =      -1.2029585592947207 [Eh]
	 SCS Correlation Energy    =      -1.3232875336119458 [Eh]
	 SCS Total Energy          =    -454.9791845642743056 [Eh]
	-----------------------------------------------------------


  -Total Gradient:
     Atom            X                  Y                   Z
    ------   -----------------  -----------------  -----------------
       1        0.000051009940    -0.000041956504     0.000001165844
       2       -0.000011727007     0.000033203190    -0.000018572088
       3        0.000010324254    -0.000010119391     0.000022168556
       4       -0.000007604907     0.000001565486    -0.000002486951
       5        0.000001225755    -0.000003701409    -0.000004305653
       6       -0.000014978139     0.000010493009    -0.000001082369
       7       -0.000020092643     0.000013401613     0.000013799284
       8        0.000002257168    -0.000003272722    -0.000001251727
       9       -0.000000879132    -0.000001303204    -0.000002392519
      10       -0.000000113721    -0.000004495871    -0.000002313741
      11       -0.000001851578    -0.000003596317    -0.000001571780
      12        0.000017486195    -0.000010950799     0.000001358296
      13       -0.000004367307    -0.000000631683    -0.000004771775
      14       -0.000008589572     0.000008993885     0.000001248542
      15       -0.000009916624     0.000003973141    -0.000002757279
      16       -0.000005636691     0.000004600253    -0.000001393925
      17        0.000000491133     0.000002169244     0.000001090548
      18        0.000002216498     0.000000480710     0.000001844948
      19        0.000000746378     0.000001147363     0.000000223797


*** tstop() called on localhost.localdomain at Tue Jan 15 09:22:31 2019
Module time:
	user time   =      53.53 seconds =       0.89 minutes
	system time =       1.99 seconds =       0.03 minutes
	total time  =         56 seconds =       0.93 minutes
Total time:
	user time   =      53.54 seconds =       0.89 minutes
	system time =       1.99 seconds =       0.03 minutes
	total time  =         56 seconds =       0.93 minutes

  Based on options and gradient (rms=1.24E-05), recommend projecting translations and projecting rotations.
hessian() will perform frequency computation by finite difference of analytic gradients.

-------------------------------------------------------------

  Using finite-differences of gradients to determine vibrational frequencies and 
  normal modes.  Resulting frequencies are only valid at stationary points.
	Generating geometries for use with 3-point formula.
	Displacement size will be 5.00e-03.
	Number of atoms is 19.
	Number of irreps is 1.
	Number of SALCS is 51.
	Translations projected? 1. Rotations projected? 1.
	Index of salcs per irrep:
	 1 :  0  1  2  3  4  5  6  7  8  9  10  11  12  13  14  15  16  17  18  19  20  21  22  23  24  25  26  27  28  29  30  31  32  33  34  35  36  37  38  39  40  41  42  43  44  45  46  47  48  49  50 
	Number of SALC's per irrep:
		 Irrep 1: 51
	Number of geometries (including reference) is 103.
	Number of displacements per irrep:
	  Irrep 1: 102

  //>>>>>>>>>>>>>>>>>>>>>>>>>>>>>>>>>>>//
  //   Loading displacement 1 of 103   //
  //<<<<<<<<<<<<<<<<<<<<<<<<<<<<<<<<<<<//
gradient() will perform analytic gradient computation.

*** tstart() called on localhost.localdomain
*** at Tue Jan 15 09:22:31 2019

    SCF Algorithm Type (re)set to DF.

*** tstart() called on localhost.localdomain
*** at Tue Jan 15 09:22:31 2019

   => Loading Basis Set <=

    Name: 6-31+G(D)
    Role: ORBITAL
    Keyword: BASIS
    atoms 1, 3, 8, 12, 16       entry C          line   119 file /root/psi4conda/share/psi4/basis/6-31pg_d_.gbs 
    atoms 2, 6                  entry O          line   157 file /root/psi4conda/share/psi4/basis/6-31pg_d_.gbs 
    atoms 4, 9-11, 13-15, 17-19 entry H          line    46 file /root/psi4conda/share/psi4/basis/6-31pg_d_.gbs 
    atoms 5, 7                  entry N          line   138 file /root/psi4conda/share/psi4/basis/6-31pg_d_.gbs 


         ---------------------------------------------------------
                                   SCF
            by Justin Turney, Rob Parrish, Andy Simmonett
                             and Daniel Smith
                              RHF Reference
                        1 Threads,    500 MiB Core
         ---------------------------------------------------------

  ==> Geometry <==

    Molecular point group: c1
    Full point group: C1

    Geometry (in Angstrom), charge = 0, multiplicity = 1:

       Center              X                  Y                   Z               Mass       
    ------------   -----------------  -----------------  -----------------  -----------------
         C            0.810853554573    -0.124632340170    -0.260505138229    12.000000000000
         O           -0.364394100834     0.767971267676    -0.798961385494    15.994914619560
         C           -1.568232140099    -0.333366523896     0.729807454608    12.000000000000
         H           -1.975258358209    -0.307102579639     1.740637010821     1.007825032070
         N           -1.253759985018     0.843189800525     0.235851510763    14.003074004780
         O            0.499896379990    -0.734343567219     0.810885827726    15.994914619560
         N            1.795533352965    -0.029409488573    -1.067956935559    14.003074004780
         C           -1.063097779485     2.027820957499     1.069908102557    12.000000000000
         H           -1.167918045902     2.902716803705     0.429108941576     1.007825032070
         H           -1.826155000928     2.036929641007     1.849972880898     1.007825032070
         H           -0.058585181564     1.994039340997     1.502195112887     1.007825032070
         C            2.945595395200    -0.862529301663    -0.704555003379    12.000000000000
         H            3.531329264026    -1.047649274099    -1.607784883069     1.007825032070
         H            3.587103941183    -0.340709153505     0.016111380681     1.007825032070
         H            2.646960457386    -1.822501838099    -0.263315138092     1.007825032070
         C           -1.848595393809    -1.527893885432    -0.110120333021    12.000000000000
         H           -1.521430654409    -2.424556405164     0.419896929465     1.007825032070
         H           -2.933801440052    -1.593265441235    -0.266508059728     1.007825032070
         H           -1.346044305282    -1.467789159102    -1.074914597803     1.007825032070

  Running in c1 symmetry.

  Rotational constants: A =      0.09111  B =      0.04075  C =      0.03378 [cm^-1]
  Rotational constants: A =   2731.45908  B =   1221.61606  C =   1012.71659 [MHz]
  Nuclear repulsion =  484.684972783718422

  Charge       = 0
  Multiplicity = 1
  Electrons    = 70
  Nalpha       = 35
  Nbeta        = 35

  ==> Algorithm <==

  SCF Algorithm Type is DF.
  DIIS enabled.
  MOM disabled.
  Fractional occupation disabled.
  Guess Type is SAD.
  Energy threshold   = 1.00e-10
  Density threshold  = 1.00e-10
  Integral threshold = 0.00e+00

  ==> Primary Basis <==

  Basis Set: 6-31+G(D)
    Blend: 6-31+G(D)
    Number of shells: 92
    Number of basis function: 191
    Number of Cartesian functions: 191
    Spherical Harmonics?: false
    Max angular momentum: 2

   => Loading Basis Set <=

    Name: (6-31+G(D) AUX)
    Role: JKFIT
    Keyword: DF_BASIS_SCF
    atoms 1, 3, 8, 12, 16       entry C          line   194 file /root/psi4conda/share/psi4/basis/heavy-aug-cc-pvdz-jkfit.gbs 
    atoms 2, 6                  entry O          line   310 file /root/psi4conda/share/psi4/basis/heavy-aug-cc-pvdz-jkfit.gbs 
    atoms 4, 9-11, 13-15, 17-19 entry H          line   116 file /root/psi4conda/share/psi4/basis/heavy-aug-cc-pvdz-jkfit.gbs 
    atoms 5, 7                  entry N          line   252 file /root/psi4conda/share/psi4/basis/heavy-aug-cc-pvdz-jkfit.gbs 

  ==> Pre-Iterations <==

   -------------------------------------------------------
    Irrep   Nso     Nmo     Nalpha   Nbeta   Ndocc  Nsocc
   -------------------------------------------------------
     A        191     191       0       0       0       0
   -------------------------------------------------------
    Total     191     191      35      35      35       0
   -------------------------------------------------------

  ==> Integral Setup <==

  ==> DiskDFJK: Density-Fitted J/K Matrices <==

    J tasked:                  Yes
    K tasked:                  Yes
    wK tasked:                  No
    OpenMP threads:              1
    Integrals threads:           1
    Memory (MB):               375
    Algorithm:                Core
    Integral Cache:           NONE
    Schwarz Cutoff:          1E-12
    Fitting Condition:       1E-12

   => Auxiliary Basis Set <=

  Basis Set: (6-31+G(D) AUX)
    Blend: HEAVY-AUG-CC-PVDZ-JKFIT
    Number of shells: 342
    Number of basis function: 1159
    Number of Cartesian functions: 1159
    Spherical Harmonics?: false
    Max angular momentum: 3

  Minimum eigenvalue in the overlap matrix is 5.6658912351E-05.
  Using Symmetric Orthogonalization.

  SCF Guess: Superposition of Atomic Densities via on-the-fly atomic UHF.

  ==> Iterations <==

                           Total Energy        Delta E     RMS |[F,P]|

   @DF-RHF iter   0:  -456.85517630645325   -4.56855e+02   2.85530e-02 
   @DF-RHF iter   1:  -453.31446528969002    3.54071e+00   3.92417e-03 
   @DF-RHF iter   2:  -453.54951756570796   -2.35052e-01   2.54507e-03 DIIS
   @DF-RHF iter   3:  -453.64370974958860   -9.41922e-02   5.54220e-04 DIIS
   @DF-RHF iter   4:  -453.65396488871920   -1.02551e-02   2.22846e-04 DIIS
   @DF-RHF iter   5:  -453.65544133117260   -1.47644e-03   9.16421e-05 DIIS
   @DF-RHF iter   6:  -453.65578998717831   -3.48656e-04   3.57905e-05 DIIS
   @DF-RHF iter   7:  -453.65587031578298   -8.03286e-05   1.50433e-05 DIIS
   @DF-RHF iter   8:  -453.65588318601465   -1.28702e-05   5.16180e-06 DIIS
   @DF-RHF iter   9:  -453.65588489010673   -1.70409e-06   2.17950e-06 DIIS
   @DF-RHF iter  10:  -453.65588515873509   -2.68628e-07   6.99569e-07 DIIS
   @DF-RHF iter  11:  -453.65588519183245   -3.30974e-08   2.22801e-07 DIIS
   @DF-RHF iter  12:  -453.65588519454747   -2.71501e-09   6.96367e-08 DIIS
   @DF-RHF iter  13:  -453.65588519477382   -2.26350e-10   2.13801e-08 DIIS
   @DF-RHF iter  14:  -453.65588519479667   -2.28511e-11   7.06806e-09 DIIS
   @DF-RHF iter  15:  -453.65588519480150   -4.83169e-12   2.72341e-09 DIIS
   @DF-RHF iter  16:  -453.65588519480281   -1.30740e-12   1.11544e-09 DIIS
   @DF-RHF iter  17:  -453.65588519479905    3.75167e-12   4.25597e-10 DIIS
   @DF-RHF iter  18:  -453.65588519480013   -1.08002e-12   1.59271e-10 DIIS
   @DF-RHF iter  19:  -453.65588519479979    3.41061e-13   7.77841e-11 DIIS

  ==> Post-Iterations <==

    Orbital Energies [Eh]
    ---------------------

    Doubly Occupied:                                                      

       1A    -20.627799     2A    -20.545719     3A    -15.696917  
       4A    -15.513873     5A    -11.390609     6A    -11.366332  
       7A    -11.296623     8A    -11.267397     9A    -11.220093  
      10A     -1.485987    11A     -1.350517    12A     -1.229526  
      13A     -1.163471    14A     -1.077700    15A     -0.976622  
      16A     -0.913411    17A     -0.837836    18A     -0.762208  
      19A     -0.728573    20A     -0.699575    21A     -0.678332  
      22A     -0.632362    23A     -0.618088    24A     -0.612756  
      25A     -0.592610    26A     -0.588955    27A     -0.576869  
      28A     -0.568005    29A     -0.534656    30A     -0.528374  
      31A     -0.493870    32A     -0.457003    33A     -0.439211  
      34A     -0.379875    35A     -0.336574  

    Virtual:                                                              

      36A      0.050021    37A      0.070844    38A      0.074764  
      39A      0.081818    40A      0.096920    41A      0.103746  
      42A      0.113498    43A      0.117230    44A      0.119622  
      45A      0.131192    46A      0.139425    47A      0.144248  
      48A      0.158038    49A      0.158412    50A      0.169916  
      51A      0.181474    52A      0.198211    53A      0.210611  
      54A      0.222201    55A      0.229219    56A      0.244199  
      57A      0.249756    58A      0.276109    59A      0.276530  
      60A      0.282547    61A      0.305144    62A      0.316110  
      63A      0.318382    64A      0.338688    65A      0.347421  
      66A      0.354129    67A      0.361139    68A      0.364010  
      69A      0.374797    70A      0.381981    71A      0.390745  
      72A      0.408028    73A      0.409304    74A      0.416981  
      75A      0.419307    76A      0.430875    77A      0.447264  
      78A      0.448941    79A      0.464124    80A      0.472822  
      81A      0.477870    82A      0.486782    83A      0.505541  
      84A      0.529761    85A      0.533921    86A      0.551020  
      87A      0.582586    88A      0.595972    89A      0.601692  
      90A      0.656730    91A      0.797784    92A      0.834439  
      93A      0.860471    94A      0.897536    95A      0.919159  
      96A      0.934652    97A      0.952801    98A      0.970417  
      99A      0.978734   100A      0.983613   101A      0.993038  
     102A      1.018713   103A      1.043642   104A      1.051826  
     105A      1.102230   106A      1.114139   107A      1.157647  
     108A      1.184034   109A      1.196031   110A      1.205678  
     111A      1.222924   112A      1.249549   113A      1.264824  
     114A      1.286928   115A      1.293617   116A      1.298048  
     117A      1.329578   118A      1.347688   119A      1.350170  
     120A      1.365108   121A      1.382723   122A      1.391867  
     123A      1.435784   124A      1.445417   125A      1.480881  
     126A      1.510393   127A      1.553638   128A      1.582961  
     129A      1.597409   130A      1.667847   131A      1.671270  
     132A      1.686845   133A      1.705117   134A      1.733517  
     135A      1.741162   136A      1.800468   137A      1.816971  
     138A      1.829648   139A      1.839064   140A      1.885141  
     141A      1.935471   142A      1.948935   143A      2.014797  
     144A      2.071030   145A      2.085303   146A      2.133280  
     147A      2.160389   148A      2.202422   149A      2.237897  
     150A      2.262343   151A      2.301570   152A      2.330023  
     153A      2.355500   154A      2.364213   155A      2.388008  
     156A      2.460431   157A      2.476307   158A      2.498174  
     159A      2.535328   160A      2.552768   161A      2.564185  
     162A      2.580759   163A      2.593374   164A      2.648547  
     165A      2.660017   166A      2.690627   167A      2.708551  
     168A      2.748846   169A      2.765308   170A      2.794394  
     171A      2.897467   172A      2.954867   173A      3.058748  
     174A      3.090825   175A      3.122649   176A      3.165779  
     177A      3.199291   178A      3.272285   179A      3.338102  
     180A      3.409670   181A      3.502501   182A      3.659538  
     183A      4.550620   184A      4.669791   185A      4.698911  
     186A      4.791325   187A      4.809334   188A      4.875492  
     189A      4.908414   190A      4.945704   191A      5.099063  

    Final Occupation by Irrep:
              A 
    DOCC [    35 ]

  Energy converged.

  @DF-RHF Final Energy:  -453.65588519479979

   => Energetics <=

    Nuclear Repulsion Energy =            484.6849727837184219
    One-Electron Energy =               -1580.3050616678326605
    Two-Electron Energy =                 641.9642036893144450
    Total Energy =                       -453.6558851947997937



Properties will be evaluated at   0.000000,   0.000000,   0.000000 [a0]

Properties computed using the SCF density matrix

  Nuclear Dipole Moment: [e a0]
     X:    -0.9982      Y:    -1.9427      Z:     2.5762

  Electronic Dipole Moment: [e a0]
     X:    -1.2904      Y:     1.9374      Z:    -1.1074

  Dipole Moment: [e a0]
     X:    -2.2886      Y:    -0.0053      Z:     1.4688     Total:     2.7194

  Dipole Moment: [D]
     X:    -5.8169      Y:    -0.0134      Z:     3.7334     Total:     6.9120


*** tstop() called on localhost.localdomain at Tue Jan 15 09:22:45 2019
Module time:
	user time   =      14.44 seconds =       0.24 minutes
	system time =       0.38 seconds =       0.01 minutes
	total time  =         14 seconds =       0.23 minutes
Total time:
	user time   =      67.98 seconds =       1.13 minutes
	system time =       2.38 seconds =       0.04 minutes
	total time  =         70 seconds =       1.17 minutes

  //>>>>>>>>>>>>>>>>>>>>>>>>>>>>>>>>>>>//
  //               DFMP2               //
  //<<<<<<<<<<<<<<<<<<<<<<<<<<<<<<<<<<<//

   => Loading Basis Set <=

    Name: (6-31+G(D) AUX)
    Role: RIFIT
    Keyword: DF_BASIS_MP2
    atoms 1, 3, 8, 12, 16       entry C          line   116 file /root/psi4conda/share/psi4/basis/heavy-aug-cc-pvdz-ri.gbs 
    atoms 2, 6                  entry O          line   208 file /root/psi4conda/share/psi4/basis/heavy-aug-cc-pvdz-ri.gbs 
    atoms 4, 9-11, 13-15, 17-19 entry H          line    44 file /root/psi4conda/share/psi4/basis/heavy-aug-cc-pvdz-ri.gbs 
    atoms 5, 7                  entry N          line   162 file /root/psi4conda/share/psi4/basis/heavy-aug-cc-pvdz-ri.gbs 

	 --------------------------------------------------------
	                          DF-MP2                         
	      2nd-Order Density-Fitted Moller-Plesset Theory     
	              RMP2 Wavefunction,   1 Threads             
	                                                         
	        Rob Parrish, Justin Turney, Andy Simmonett,      
	           Ed Hohenstein, and C. David Sherrill          
	 --------------------------------------------------------

   => Auxiliary Basis Set <=

  Basis Set: (6-31+G(D) AUX)
    Blend: HEAVY-AUG-CC-PVDZ-RI
    Number of shells: 258
    Number of basis function: 788
    Number of Cartesian functions: 924
    Spherical Harmonics?: true
    Max angular momentum: 3

	 --------------------------------------------------------
	                 NBF =   191, NAUX =   788
	 --------------------------------------------------------
	   CLASS    FOCC     OCC    AOCC    AVIR     VIR    FVIR
	   PAIRS       9      35      26     156     156       0
	 --------------------------------------------------------


         ------------------------------------------------------------
                                     CPHF                           
                                  Rob Parrish                       
         ------------------------------------------------------------

  ==> Geometry <==

    Molecular point group: c1
    Full point group: C1

    Geometry (in Angstrom), charge = 0, multiplicity = 1:

       Center              X                  Y                   Z               Mass       
    ------------   -----------------  -----------------  -----------------  -----------------
         C            0.810853554573    -0.124632340170    -0.260505138229    12.000000000000
         O           -0.364394100834     0.767971267676    -0.798961385494    15.994914619560
         C           -1.568232140099    -0.333366523896     0.729807454608    12.000000000000
         H           -1.975258358209    -0.307102579639     1.740637010821     1.007825032070
         N           -1.253759985018     0.843189800525     0.235851510763    14.003074004780
         O            0.499896379990    -0.734343567219     0.810885827726    15.994914619560
         N            1.795533352965    -0.029409488573    -1.067956935559    14.003074004780
         C           -1.063097779485     2.027820957499     1.069908102557    12.000000000000
         H           -1.167918045902     2.902716803705     0.429108941576     1.007825032070
         H           -1.826155000928     2.036929641007     1.849972880898     1.007825032070
         H           -0.058585181564     1.994039340997     1.502195112887     1.007825032070
         C            2.945595395200    -0.862529301663    -0.704555003379    12.000000000000
         H            3.531329264026    -1.047649274099    -1.607784883069     1.007825032070
         H            3.587103941183    -0.340709153505     0.016111380681     1.007825032070
         H            2.646960457386    -1.822501838099    -0.263315138092     1.007825032070
         C           -1.848595393809    -1.527893885432    -0.110120333021    12.000000000000
         H           -1.521430654409    -2.424556405164     0.419896929465     1.007825032070
         H           -2.933801440052    -1.593265441235    -0.266508059728     1.007825032070
         H           -1.346044305282    -1.467789159102    -1.074914597803     1.007825032070

  Nuclear repulsion =  484.684972783718479
  Reference energy  = -453.655885194799794

  ==> Basis Set <==

  Basis Set: 6-31+G(D)
    Blend: 6-31+G(D)
    Number of shells: 92
    Number of basis function: 191
    Number of Cartesian functions: 191
    Spherical Harmonics?: false
    Max angular momentum: 2

  ==> CGRSolver (by Rob Parrish) <==

   Number of roots    =         1
   Preconditioning    =    JACOBI
   Convergence cutoff =     1E-06
   Maximum iterations =       100

  ==> CPHFRHamiltonian (by Rob Parrish) <== 

  ==> DiskDFJK: Density-Fitted J/K Matrices <==

    J tasked:                  Yes
    K tasked:                  Yes
    wK tasked:                  No
    OpenMP threads:              1
    Integrals threads:           1
    Memory (MB):               375
    Algorithm:                Core
    Integral Cache:           NONE
    Schwarz Cutoff:          1E-12
    Fitting Condition:       1E-12

   => Auxiliary Basis Set <=

  Basis Set: (6-31+G(D) AUX)
    Blend: HEAVY-AUG-CC-PVDZ-JKFIT
    Number of shells: 342
    Number of basis function: 1159
    Number of Cartesian functions: 1159
    Spherical Harmonics?: false
    Max angular momentum: 3

  ==> CPHF Iterations <==

  => Iterations <=

             Iter  Converged  Remaining    Residual
  CGR           1          0          1   1.785E-01
  CGR           2          0          1   4.832E-02
  CGR           3          0          1   2.620E-02
  CGR           4          0          1   7.641E-03
  CGR           5          0          1   3.180E-03
  CGR           6          0          1   9.486E-04
  CGR           7          0          1   4.281E-04
  CGR           8          0          1   1.538E-04
  CGR           9          0          1   5.709E-05
  CGR          10          0          1   2.175E-05
  CGR          11          0          1   6.966E-06
  CGR          12          0          1   2.314E-06
  CGR          13          1          0   9.476E-07

    CGRSolver converged.

  ==> DFCorrGrad: Density-Fitted Correlated Gradients <==

    OpenMP threads:              1
    Integrals threads:           1
    Memory (MB):               375
    Schwarz Cutoff:          0E+00
    Fitting Condition:       1E-12

   => Auxiliary Basis Set <=

  Basis Set: (6-31+G(D) AUX)
    Blend: HEAVY-AUG-CC-PVDZ-JKFIT
    Number of shells: 342
    Number of basis function: 1159
    Number of Cartesian functions: 1159
    Spherical Harmonics?: false
    Max angular momentum: 3

	-----------------------------------------------------------
	 ==================> DF-MP2 Energies <==================== 
	-----------------------------------------------------------
	 Reference Energy          =    -453.6558851947997937 [Eh]
	 Singles Energy            =      -0.0000000000000001 [Eh]
	 Same-Spin Energy          =      -0.3609888562673942 [Eh]
	 Opposite-Spin Energy      =      -1.0024747614424130 [Eh]
	 Correlation Energy        =      -1.3634636177098072 [Eh]
	 Total Energy              =    -455.0193488125095769 [Eh]
	-----------------------------------------------------------
	 ================> DF-SCS-MP2 Energies <================== 
	-----------------------------------------------------------
	 SCS Same-Spin Scale       =       0.3333333333333333 [-]
	 SCS Opposite-Spin Scale   =       1.2000000000000000 [-]
	 SCS Same-Spin Energy      =      -0.1203296187557981 [Eh]
	 SCS Opposite-Spin Energy  =      -1.2029697137308955 [Eh]
	 SCS Correlation Energy    =      -1.3232993324866935 [Eh]
	 SCS Total Energy          =    -454.9791845272864634 [Eh]
	-----------------------------------------------------------


  -Total Gradient:
     Atom            X                  Y                   Z
    ------   -----------------  -----------------  -----------------
       1       -0.000854636944    -0.000159924336     0.000615171582
       2       -0.000019636413     0.000086343570    -0.000044382897
       3       -0.000001632852     0.000013677019     0.000004514959
       4       -0.000008019260    -0.000000367192    -0.000000287412
       5        0.000091154428    -0.000040040644    -0.000038769085
       6        0.000194707603     0.000093856635    -0.000184989270
       7        0.000537606247     0.000011202146    -0.000299358653
       8       -0.000005925912    -0.000004524865     0.000001569614
       9       -0.000000658236    -0.000002612001    -0.000003163167
      10       -0.000000373111    -0.000002810581     0.000000473918
      11       -0.000003560609    -0.000005622735    -0.000003098818
      12        0.000095227955    -0.000016095325    -0.000042827838
      13        0.000000764937    -0.000004267893    -0.000000796083
      14       -0.000013132955     0.000008827749    -0.000004350934
      15       -0.000017788620     0.000012269859    -0.000007033309
      16        0.000001764408     0.000003756881    -0.000000855209
      17        0.000000575589     0.000001514630     0.000001736961
      18        0.000002018503    -0.000000161190     0.000003460804
      19        0.000001545239     0.000004978281     0.000002984839


*** tstop() called on localhost.localdomain at Tue Jan 15 09:23:26 2019
Module time:
	user time   =      52.77 seconds =       0.88 minutes
	system time =       1.87 seconds =       0.03 minutes
	total time  =         55 seconds =       0.92 minutes
Total time:
	user time   =     106.31 seconds =       1.77 minutes
	system time =       3.87 seconds =       0.06 minutes
	total time  =        111 seconds =       1.85 minutes

  //>>>>>>>>>>>>>>>>>>>>>>>>>>>>>>>>>>>//
  //   Loading displacement 2 of 103   //
  //<<<<<<<<<<<<<<<<<<<<<<<<<<<<<<<<<<<//
gradient() will perform analytic gradient computation.

*** tstart() called on localhost.localdomain
*** at Tue Jan 15 09:23:26 2019

    SCF Algorithm Type (re)set to DF.

*** tstart() called on localhost.localdomain
*** at Tue Jan 15 09:23:26 2019

   => Loading Basis Set <=

    Name: 6-31+G(D)
    Role: ORBITAL
    Keyword: BASIS
    atoms 1, 3, 8, 12, 16       entry C          line   119 file /root/psi4conda/share/psi4/basis/6-31pg_d_.gbs 
    atoms 2, 6                  entry O          line   157 file /root/psi4conda/share/psi4/basis/6-31pg_d_.gbs 
    atoms 4, 9-11, 13-15, 17-19 entry H          line    46 file /root/psi4conda/share/psi4/basis/6-31pg_d_.gbs 
    atoms 5, 7                  entry N          line   138 file /root/psi4conda/share/psi4/basis/6-31pg_d_.gbs 


         ---------------------------------------------------------
                                   SCF
            by Justin Turney, Rob Parrish, Andy Simmonett
                             and Daniel Smith
                              RHF Reference
                        1 Threads,    500 MiB Core
         ---------------------------------------------------------

  ==> Geometry <==

    Molecular point group: c1
    Full point group: C1

    Geometry (in Angstrom), charge = 0, multiplicity = 1:

       Center              X                  Y                   Z               Mass       
    ------------   -----------------  -----------------  -----------------  -----------------
         C            0.812307118421    -0.124636022940    -0.260515034498    12.000000000000
         O           -0.364548889212     0.767971871072    -0.798957757776    15.994914619560
         C           -1.568372609741    -0.333359147628     0.729827236764    12.000000000000
         H           -1.975386214389    -0.307092346935     1.740661797671     1.007825032070
         N           -1.253901659096     0.843195299045     0.235866053543    14.003074004780
         O            0.499755241184    -0.734344721317     0.810880487116    15.994914619560
         N            1.795371912159    -0.029418199795    -1.067979111489    14.003074004780
         C           -1.063224196867     2.027826617564     1.069918928120    12.000000000000
         H           -1.168048741942     2.902722165916     0.429120060380     1.007825032070
         H           -1.826271730898     2.036939377375     1.849993134934     1.007825032070
         H           -0.058706392516     1.994041308379     1.502193551391     1.007825032070
         C            2.945434975762    -0.862542391453    -0.704590450031    12.000000000000
         H            3.531156899744    -1.047665842069    -1.607827362833     1.007825032070
         H            3.586954612097    -0.340724091655     0.016067400061     1.007825032070
         H            2.646801493364    -1.822513176637    -0.263345789672     1.007825032070
         C           -1.848751234031    -1.527886303420    -0.110095712699    12.000000000000
         H           -1.521583677117    -2.424549579447     0.419918531129     1.007825032070
         H           -2.933959487266    -1.593253513657    -0.266469940474     1.007825032070
         H           -1.346211829394    -1.467784779036    -1.074896262874     1.007825032070

  Running in c1 symmetry.

  Rotational constants: A =      0.09111  B =      0.04075  C =      0.03378 [cm^-1]
  Rotational constants: A =   2731.44688  B =   1221.52655  C =   1012.65288 [MHz]
  Nuclear repulsion =  484.673401258485796

  Charge       = 0
  Multiplicity = 1
  Electrons    = 70
  Nalpha       = 35
  Nbeta        = 35

  ==> Algorithm <==

  SCF Algorithm Type is DF.
  DIIS enabled.
  MOM disabled.
  Fractional occupation disabled.
  Guess Type is SAD.
  Energy threshold   = 1.00e-10
  Density threshold  = 1.00e-10
  Integral threshold = 0.00e+00

  ==> Primary Basis <==

  Basis Set: 6-31+G(D)
    Blend: 6-31+G(D)
    Number of shells: 92
    Number of basis function: 191
    Number of Cartesian functions: 191
    Spherical Harmonics?: false
    Max angular momentum: 2

   => Loading Basis Set <=

    Name: (6-31+G(D) AUX)
    Role: JKFIT
    Keyword: DF_BASIS_SCF
    atoms 1, 3, 8, 12, 16       entry C          line   194 file /root/psi4conda/share/psi4/basis/heavy-aug-cc-pvdz-jkfit.gbs 
    atoms 2, 6                  entry O          line   310 file /root/psi4conda/share/psi4/basis/heavy-aug-cc-pvdz-jkfit.gbs 
    atoms 4, 9-11, 13-15, 17-19 entry H          line   116 file /root/psi4conda/share/psi4/basis/heavy-aug-cc-pvdz-jkfit.gbs 
    atoms 5, 7                  entry N          line   252 file /root/psi4conda/share/psi4/basis/heavy-aug-cc-pvdz-jkfit.gbs 

  ==> Pre-Iterations <==

   -------------------------------------------------------
    Irrep   Nso     Nmo     Nalpha   Nbeta   Ndocc  Nsocc
   -------------------------------------------------------
     A        191     191       0       0       0       0
   -------------------------------------------------------
    Total     191     191      35      35      35       0
   -------------------------------------------------------

  ==> Integral Setup <==

  ==> DiskDFJK: Density-Fitted J/K Matrices <==

    J tasked:                  Yes
    K tasked:                  Yes
    wK tasked:                  No
    OpenMP threads:              1
    Integrals threads:           1
    Memory (MB):               375
    Algorithm:                Core
    Integral Cache:           NONE
    Schwarz Cutoff:          1E-12
    Fitting Condition:       1E-12

   => Auxiliary Basis Set <=

  Basis Set: (6-31+G(D) AUX)
    Blend: HEAVY-AUG-CC-PVDZ-JKFIT
    Number of shells: 342
    Number of basis function: 1159
    Number of Cartesian functions: 1159
    Spherical Harmonics?: false
    Max angular momentum: 3

  Minimum eigenvalue in the overlap matrix is 5.6663617379E-05.
  Using Symmetric Orthogonalization.

  SCF Guess: Superposition of Atomic Densities via on-the-fly atomic UHF.

  ==> Iterations <==

                           Total Energy        Delta E     RMS |[F,P]|

   @DF-RHF iter   0:  -456.92506817252172   -4.56925e+02   2.88045e-02 
   @DF-RHF iter   1:  -453.30970256176596    3.61537e+00   3.89923e-03 
   @DF-RHF iter   2:  -453.54491297249047   -2.35210e-01   2.56493e-03 DIIS
   @DF-RHF iter   3:  -453.64212400432859   -9.72110e-02   5.93102e-04 DIIS
   @DF-RHF iter   4:  -453.65365931779064   -1.15353e-02   2.37372e-04 DIIS
   @DF-RHF iter   5:  -453.65541410597223   -1.75479e-03   1.01853e-04 DIIS
   @DF-RHF iter   6:  -453.65582257827896   -4.08472e-04   3.51061e-05 DIIS
   @DF-RHF iter   7:  -453.65589831194040   -7.57337e-05   1.31010e-05 DIIS
   @DF-RHF iter   8:  -453.65590642339106   -8.11145e-06   4.02896e-06 DIIS
   @DF-RHF iter   9:  -453.65590727331363   -8.49923e-07   1.61336e-06 DIIS
   @DF-RHF iter  10:  -453.65590740106825   -1.27755e-07   6.10787e-07 DIIS
   @DF-RHF iter  11:  -453.65590742518020   -2.41120e-08   2.29804e-07 DIIS
   @DF-RHF iter  12:  -453.65590742868096   -3.50076e-09   8.84854e-08 DIIS
   @DF-RHF iter  13:  -453.65590742912599   -4.45027e-10   3.29035e-08 DIIS
   @DF-RHF iter  14:  -453.65590742918420   -5.82077e-11   1.31405e-08 DIIS
   @DF-RHF iter  15:  -453.65590742919261   -8.41283e-12   5.52409e-09 DIIS
   @DF-RHF iter  16:  -453.65590742919738   -4.77485e-12   1.76989e-09 DIIS
   @DF-RHF iter  17:  -453.65590742919346    3.92220e-12   8.42154e-10 DIIS
   @DF-RHF iter  18:  -453.65590742919420   -7.38964e-13   2.88431e-10 DIIS
   @DF-RHF iter  19:  -453.65590742919659   -2.38742e-12   1.41029e-10 DIIS
   @DF-RHF iter  20:  -453.65590742919414    2.44427e-12   6.30893e-11 DIIS

  ==> Post-Iterations <==

    Orbital Energies [Eh]
    ---------------------

    Doubly Occupied:                                                      

       1A    -20.627408     2A    -20.545621     3A    -15.696759  
       4A    -15.514050     5A    -11.390454     6A    -11.366267  
       7A    -11.296512     8A    -11.267292     9A    -11.220299  
      10A     -1.485580    11A     -1.350260    12A     -1.229365  
      13A     -1.164057    14A     -1.077555    15A     -0.976493  
      16A     -0.913618    17A     -0.837688    18A     -0.761950  
      19A     -0.728370    20A     -0.699429    21A     -0.678199  
      22A     -0.632256    23A     -0.618037    24A     -0.612826  
      25A     -0.592528    26A     -0.588839    27A     -0.576934  
      28A     -0.567876    29A     -0.534632    30A     -0.528447  
      31A     -0.493701    32A     -0.456734    33A     -0.439167  
      34A     -0.380101    35A     -0.337009  

    Virtual:                                                              

      36A      0.050085    37A      0.070887    38A      0.074836  
      39A      0.081873    40A      0.096977    41A      0.103685  
      42A      0.113524    43A      0.117266    44A      0.119607  
      45A      0.131178    46A      0.139415    47A      0.144254  
      48A      0.158038    49A      0.158461    50A      0.169932  
      51A      0.181502    52A      0.198219    53A      0.210619  
      54A      0.222217    55A      0.229269    56A      0.244214  
      57A      0.249802    58A      0.276121    59A      0.276544  
      60A      0.282549    61A      0.305140    62A      0.316168  
      63A      0.318449    64A      0.338774    65A      0.347447  
      66A      0.354190    67A      0.361084    68A      0.363935  
      69A      0.374686    70A      0.381966    71A      0.390812  
      72A      0.408057    73A      0.409309    74A      0.416952  
      75A      0.419346    76A      0.430900    77A      0.447235  
      78A      0.448939    79A      0.464109    80A      0.472811  
      81A      0.477881    82A      0.486781    83A      0.505605  
      84A      0.529789    85A      0.533905    86A      0.551038  
      87A      0.582633    88A      0.595942    89A      0.601745  
      90A      0.656627    91A      0.798352    92A      0.834551  
      93A      0.860632    94A      0.897767    95A      0.919313  
      96A      0.934580    97A      0.952928    98A      0.970335  
      99A      0.978627   100A      0.983563   101A      0.993126  
     102A      1.018631   103A      1.043649   104A      1.051855  
     105A      1.102338   106A      1.114105   107A      1.157769  
     108A      1.184159   109A      1.196125   110A      1.205761  
     111A      1.222771   112A      1.249634   113A      1.264932  
     114A      1.286937   115A      1.293468   116A      1.298042  
     117A      1.329391   118A      1.347714   119A      1.350137  
     120A      1.365095   121A      1.382727   122A      1.391752  
     123A      1.435796   124A      1.445484   125A      1.481014  
     126A      1.510532   127A      1.553684   128A      1.582976  
     129A      1.597551   130A      1.668092   131A      1.671225  
     132A      1.687083   133A      1.705308   134A      1.733662  
     135A      1.741470   136A      1.800588   137A      1.816916  
     138A      1.829772   139A      1.838885   140A      1.885317  
     141A      1.935407   142A      1.948978   143A      2.014767  
     144A      2.070838   145A      2.085376   146A      2.133166  
     147A      2.160510   148A      2.202547   149A      2.238063  
     150A      2.262626   151A      2.301519   152A      2.329919  
     153A      2.355478   154A      2.364437   155A      2.388032  
     156A      2.460295   157A      2.476365   158A      2.498194  
     159A      2.535675   160A      2.552909   161A      2.564367  
     162A      2.580698   163A      2.593475   164A      2.648557  
     165A      2.659767   166A      2.690673   167A      2.708473  
     168A      2.748991   169A      2.765285   170A      2.794432  
     171A      2.897118   172A      2.955056   173A      3.058990  
     174A      3.091311   175A      3.123310   176A      3.165937  
     177A      3.199291   178A      3.272669   179A      3.338148  
     180A      3.409458   181A      3.502550   182A      3.660413  
     183A      4.550732   184A      4.669980   185A      4.698950  
     186A      4.791354   187A      4.809274   188A      4.875863  
     189A      4.908806   190A      4.945636   191A      5.098886  

    Final Occupation by Irrep:
              A 
    DOCC [    35 ]

  Energy converged.

  @DF-RHF Final Energy:  -453.65590742919414

   => Energetics <=

    Nuclear Repulsion Energy =            484.6734012584857965
    One-Electron Energy =               -1580.2859893043994362
    Two-Electron Energy =                 641.9566806167193818
    Total Energy =                       -453.6559074291941442



Properties will be evaluated at   0.000000,   0.000000,   0.000000 [a0]

Properties computed using the SCF density matrix

  Nuclear Dipole Moment: [e a0]
     X:    -0.9996      Y:    -1.9427      Z:     2.5762

  Electronic Dipole Moment: [e a0]
     X:    -1.2818      Y:     1.9362      Z:    -1.1096

  Dipole Moment: [e a0]
     X:    -2.2814      Y:    -0.0065      Z:     1.4666     Total:     2.7121

  Dipole Moment: [D]
     X:    -5.7986      Y:    -0.0164      Z:     3.7277     Total:     6.8935


*** tstop() called on localhost.localdomain at Tue Jan 15 09:23:41 2019
Module time:
	user time   =      14.85 seconds =       0.25 minutes
	system time =       0.40 seconds =       0.01 minutes
	total time  =         15 seconds =       0.25 minutes
Total time:
	user time   =     121.16 seconds =       2.02 minutes
	system time =       4.32 seconds =       0.07 minutes
	total time  =        126 seconds =       2.10 minutes

  //>>>>>>>>>>>>>>>>>>>>>>>>>>>>>>>>>>>//
  //               DFMP2               //
  //<<<<<<<<<<<<<<<<<<<<<<<<<<<<<<<<<<<//

   => Loading Basis Set <=

    Name: (6-31+G(D) AUX)
    Role: RIFIT
    Keyword: DF_BASIS_MP2
    atoms 1, 3, 8, 12, 16       entry C          line   116 file /root/psi4conda/share/psi4/basis/heavy-aug-cc-pvdz-ri.gbs 
    atoms 2, 6                  entry O          line   208 file /root/psi4conda/share/psi4/basis/heavy-aug-cc-pvdz-ri.gbs 
    atoms 4, 9-11, 13-15, 17-19 entry H          line    44 file /root/psi4conda/share/psi4/basis/heavy-aug-cc-pvdz-ri.gbs 
    atoms 5, 7                  entry N          line   162 file /root/psi4conda/share/psi4/basis/heavy-aug-cc-pvdz-ri.gbs 

	 --------------------------------------------------------
	                          DF-MP2                         
	      2nd-Order Density-Fitted Moller-Plesset Theory     
	              RMP2 Wavefunction,   1 Threads             
	                                                         
	        Rob Parrish, Justin Turney, Andy Simmonett,      
	           Ed Hohenstein, and C. David Sherrill          
	 --------------------------------------------------------

   => Auxiliary Basis Set <=

  Basis Set: (6-31+G(D) AUX)
    Blend: HEAVY-AUG-CC-PVDZ-RI
    Number of shells: 258
    Number of basis function: 788
    Number of Cartesian functions: 924
    Spherical Harmonics?: true
    Max angular momentum: 3

	 --------------------------------------------------------
	                 NBF =   191, NAUX =   788
	 --------------------------------------------------------
	   CLASS    FOCC     OCC    AOCC    AVIR     VIR    FVIR
	   PAIRS       9      35      26     156     156       0
	 --------------------------------------------------------


         ------------------------------------------------------------
                                     CPHF                           
                                  Rob Parrish                       
         ------------------------------------------------------------

  ==> Geometry <==

    Molecular point group: c1
    Full point group: C1

    Geometry (in Angstrom), charge = 0, multiplicity = 1:

       Center              X                  Y                   Z               Mass       
    ------------   -----------------  -----------------  -----------------  -----------------
         C            0.812307118421    -0.124636022940    -0.260515034498    12.000000000000
         O           -0.364548889212     0.767971871072    -0.798957757776    15.994914619560
         C           -1.568372609741    -0.333359147628     0.729827236764    12.000000000000
         H           -1.975386214389    -0.307092346935     1.740661797671     1.007825032070
         N           -1.253901659096     0.843195299045     0.235866053543    14.003074004780
         O            0.499755241184    -0.734344721317     0.810880487116    15.994914619560
         N            1.795371912159    -0.029418199795    -1.067979111489    14.003074004780
         C           -1.063224196867     2.027826617564     1.069918928120    12.000000000000
         H           -1.168048741942     2.902722165916     0.429120060380     1.007825032070
         H           -1.826271730898     2.036939377375     1.849993134934     1.007825032070
         H           -0.058706392516     1.994041308379     1.502193551391     1.007825032070
         C            2.945434975762    -0.862542391453    -0.704590450031    12.000000000000
         H            3.531156899744    -1.047665842069    -1.607827362833     1.007825032070
         H            3.586954612097    -0.340724091655     0.016067400061     1.007825032070
         H            2.646801493364    -1.822513176637    -0.263345789672     1.007825032070
         C           -1.848751234031    -1.527886303420    -0.110095712699    12.000000000000
         H           -1.521583677117    -2.424549579447     0.419918531129     1.007825032070
         H           -2.933959487266    -1.593253513657    -0.266469940474     1.007825032070
         H           -1.346211829394    -1.467784779036    -1.074896262874     1.007825032070

  Nuclear repulsion =  484.673401258485796
  Reference energy  = -453.655907429194144

  ==> Basis Set <==

  Basis Set: 6-31+G(D)
    Blend: 6-31+G(D)
    Number of shells: 92
    Number of basis function: 191
    Number of Cartesian functions: 191
    Spherical Harmonics?: false
    Max angular momentum: 2

  ==> CGRSolver (by Rob Parrish) <==

   Number of roots    =         1
   Preconditioning    =    JACOBI
   Convergence cutoff =     1E-06
   Maximum iterations =       100

  ==> CPHFRHamiltonian (by Rob Parrish) <== 

  ==> DiskDFJK: Density-Fitted J/K Matrices <==

    J tasked:                  Yes
    K tasked:                  Yes
    wK tasked:                  No
    OpenMP threads:              1
    Integrals threads:           1
    Memory (MB):               375
    Algorithm:                Core
    Integral Cache:           NONE
    Schwarz Cutoff:          1E-12
    Fitting Condition:       1E-12

   => Auxiliary Basis Set <=

  Basis Set: (6-31+G(D) AUX)
    Blend: HEAVY-AUG-CC-PVDZ-JKFIT
    Number of shells: 342
    Number of basis function: 1159
    Number of Cartesian functions: 1159
    Spherical Harmonics?: false
    Max angular momentum: 3

  ==> CPHF Iterations <==

  => Iterations <=

             Iter  Converged  Remaining    Residual
  CGR           1          0          1   1.785E-01
  CGR           2          0          1   4.838E-02
  CGR           3          0          1   2.622E-02
  CGR           4          0          1   7.648E-03
  CGR           5          0          1   3.184E-03
  CGR           6          0          1   9.513E-04
  CGR           7          0          1   4.298E-04
  CGR           8          0          1   1.542E-04
  CGR           9          0          1   5.725E-05
  CGR          10          0          1   2.180E-05
  CGR          11          0          1   6.968E-06
  CGR          12          0          1   2.304E-06
  CGR          13          1          0   9.425E-07

    CGRSolver converged.

  ==> DFCorrGrad: Density-Fitted Correlated Gradients <==

    OpenMP threads:              1
    Integrals threads:           1
    Memory (MB):               375
    Schwarz Cutoff:          0E+00
    Fitting Condition:       1E-12

   => Auxiliary Basis Set <=

  Basis Set: (6-31+G(D) AUX)
    Blend: HEAVY-AUG-CC-PVDZ-JKFIT
    Number of shells: 342
    Number of basis function: 1159
    Number of Cartesian functions: 1159
    Spherical Harmonics?: false
    Max angular momentum: 3

	-----------------------------------------------------------
	 ==================> DF-MP2 Energies <==================== 
	-----------------------------------------------------------
	 Reference Energy          =    -453.6559074291941442 [Eh]
	 Singles Energy            =      -0.0000000000000001 [Eh]
	 Same-Spin Energy          =      -0.3609850180888306 [Eh]
	 Opposite-Spin Energy      =      -1.0024562090798901 [Eh]
	 Correlation Energy        =      -1.3634412271687206 [Eh]
	 Total Energy              =    -455.0193486563628653 [Eh]
	-----------------------------------------------------------
	 ================> DF-SCS-MP2 Energies <================== 
	-----------------------------------------------------------
	 SCS Same-Spin Scale       =       0.3333333333333333 [-]
	 SCS Opposite-Spin Scale   =       1.2000000000000000 [-]
	 SCS Same-Spin Energy      =      -0.1203283393629435 [Eh]
	 SCS Opposite-Spin Energy  =      -1.2029474508958680 [Eh]
	 SCS Correlation Energy    =      -1.3232757902588115 [Eh]
	 SCS Total Energy          =    -454.9791832194529775 [Eh]
	-----------------------------------------------------------


  -Total Gradient:
     Atom            X                  Y                   Z
    ------   -----------------  -----------------  -----------------
       1        0.000959012818     0.000075651382    -0.000615174084
       2       -0.000003350860    -0.000020387883     0.000007013559
       3        0.000021266756    -0.000032306851     0.000040093535
       4       -0.000007205478     0.000003886982    -0.000004853540
       5       -0.000089354730     0.000033449996     0.000030784948
       6       -0.000224570560    -0.000072960138     0.000182572130
       7       -0.000580067295     0.000016241255     0.000329142872
       8        0.000011132144    -0.000002444804    -0.000004149394
       9       -0.000001128362    -0.000000089367    -0.000001537849
      10        0.000000170804    -0.000006184115    -0.000005145341
      11       -0.000000375434    -0.000001526936    -0.000000108392
      12       -0.000060330474    -0.000006503353     0.000045956748
      13       -0.000009653364     0.000003072448    -0.000008423800
      14       -0.000004197903     0.000008981425     0.000006591579
      15       -0.000001815264    -0.000003943087     0.000001324785
      16       -0.000011958598     0.000003206201    -0.000002433118
      17        0.000000122180     0.000003284262     0.000000169446
      18        0.000002689767     0.000001248597     0.000000258666
      19       -0.000000386146    -0.000002676017    -0.000002082746


*** tstop() called on localhost.localdomain at Tue Jan 15 09:24:21 2019
Module time:
	user time   =      53.42 seconds =       0.89 minutes
	system time =       1.90 seconds =       0.03 minutes
	total time  =         55 seconds =       0.92 minutes
Total time:
	user time   =     159.73 seconds =       2.66 minutes
	system time =       5.82 seconds =       0.10 minutes
	total time  =        166 seconds =       2.77 minutes

  //>>>>>>>>>>>>>>>>>>>>>>>>>>>>>>>>>>>//
  //   Loading displacement 3 of 103   //
  //<<<<<<<<<<<<<<<<<<<<<<<<<<<<<<<<<<<//
gradient() will perform analytic gradient computation.

*** tstart() called on localhost.localdomain
*** at Tue Jan 15 09:24:21 2019

    SCF Algorithm Type (re)set to DF.

*** tstart() called on localhost.localdomain
*** at Tue Jan 15 09:24:21 2019

   => Loading Basis Set <=

    Name: 6-31+G(D)
    Role: ORBITAL
    Keyword: BASIS
    atoms 1, 3, 8, 12, 16       entry C          line   119 file /root/psi4conda/share/psi4/basis/6-31pg_d_.gbs 
    atoms 2, 6                  entry O          line   157 file /root/psi4conda/share/psi4/basis/6-31pg_d_.gbs 
    atoms 4, 9-11, 13-15, 17-19 entry H          line    46 file /root/psi4conda/share/psi4/basis/6-31pg_d_.gbs 
    atoms 5, 7                  entry N          line   138 file /root/psi4conda/share/psi4/basis/6-31pg_d_.gbs 


         ---------------------------------------------------------
                                   SCF
            by Justin Turney, Rob Parrish, Andy Simmonett
                             and Daniel Smith
                              RHF Reference
                        1 Threads,    500 MiB Core
         ---------------------------------------------------------

  ==> Geometry <==

    Molecular point group: c1
    Full point group: C1

    Geometry (in Angstrom), charge = 0, multiplicity = 1:

       Center              X                  Y                   Z               Mass       
    ------------   -----------------  -----------------  -----------------  -----------------
         C            0.811580336497    -0.125354833061    -0.260511079721    12.000000000000
         O           -0.364483799365     0.768044642541    -0.798955420339    15.994914619560
         C           -1.568296599762    -0.333316770423     0.729816277129    12.000000000000
         H           -1.975316497409    -0.307063099859     1.740648645280     1.007825032070
         N           -1.253843877263     0.843246162567     0.235863702705    14.003074004780
         O            0.499837966235    -0.734265769963     0.810879123619    15.994914619560
         N            1.795452833606    -0.029305187502    -1.067968939325    14.003074004780
         C           -1.063192437399     2.027876077559     1.069924519618    12.000000000000
         H           -1.168028961731     2.902773450554     0.429130102676     1.007825032070
         H           -1.826244627940     2.036970663499     1.849994383763     1.007825032070
         H           -0.058676517956     1.994106262923     1.502204733880     1.007825032070
         C            2.945528726143    -0.862410879716    -0.704578466569    12.000000000000
         H            3.531259168633    -1.047518620979    -1.607813075000     1.007825032070
         H            3.587034864980    -0.340585253210     0.016086093488     1.007825032070
         H            2.646909896287    -1.822389562992    -0.263341072499     1.007825032070
         C           -1.848648990622    -1.527844095418    -0.110115188536    12.000000000000
         H           -1.521468426447    -2.424504573626     0.419895759473     1.007825032070
         H           -2.933855172238    -1.593229839463    -0.266496044943     1.007825032070
         H           -1.346105105110    -1.467727995898    -1.074912496732     1.007825032070

  Running in c1 symmetry.

  Rotational constants: A =      0.09111  B =      0.04075  C =      0.03378 [cm^-1]
  Rotational constants: A =   2731.47818  B =   1221.55933  C =   1012.67984 [MHz]
  Nuclear repulsion =  484.679538917449179

  Charge       = 0
  Multiplicity = 1
  Electrons    = 70
  Nalpha       = 35
  Nbeta        = 35

  ==> Algorithm <==

  SCF Algorithm Type is DF.
  DIIS enabled.
  MOM disabled.
  Fractional occupation disabled.
  Guess Type is SAD.
  Energy threshold   = 1.00e-10
  Density threshold  = 1.00e-10
  Integral threshold = 0.00e+00

  ==> Primary Basis <==

  Basis Set: 6-31+G(D)
    Blend: 6-31+G(D)
    Number of shells: 92
    Number of basis function: 191
    Number of Cartesian functions: 191
    Spherical Harmonics?: false
    Max angular momentum: 2

   => Loading Basis Set <=

    Name: (6-31+G(D) AUX)
    Role: JKFIT
    Keyword: DF_BASIS_SCF
    atoms 1, 3, 8, 12, 16       entry C          line   194 file /root/psi4conda/share/psi4/basis/heavy-aug-cc-pvdz-jkfit.gbs 
    atoms 2, 6                  entry O          line   310 file /root/psi4conda/share/psi4/basis/heavy-aug-cc-pvdz-jkfit.gbs 
    atoms 4, 9-11, 13-15, 17-19 entry H          line   116 file /root/psi4conda/share/psi4/basis/heavy-aug-cc-pvdz-jkfit.gbs 
    atoms 5, 7                  entry N          line   252 file /root/psi4conda/share/psi4/basis/heavy-aug-cc-pvdz-jkfit.gbs 

  ==> Pre-Iterations <==

   -------------------------------------------------------
    Irrep   Nso     Nmo     Nalpha   Nbeta   Ndocc  Nsocc
   -------------------------------------------------------
     A        191     191       0       0       0       0
   -------------------------------------------------------
    Total     191     191      35      35      35       0
   -------------------------------------------------------

  ==> Integral Setup <==

  ==> DiskDFJK: Density-Fitted J/K Matrices <==

    J tasked:                  Yes
    K tasked:                  Yes
    wK tasked:                  No
    OpenMP threads:              1
    Integrals threads:           1
    Memory (MB):               375
    Algorithm:                Core
    Integral Cache:           NONE
    Schwarz Cutoff:          1E-12
    Fitting Condition:       1E-12

   => Auxiliary Basis Set <=

  Basis Set: (6-31+G(D) AUX)
    Blend: HEAVY-AUG-CC-PVDZ-JKFIT
    Number of shells: 342
    Number of basis function: 1159
    Number of Cartesian functions: 1159
    Spherical Harmonics?: false
    Max angular momentum: 3

  Minimum eigenvalue in the overlap matrix is 5.6658700093E-05.
  Using Symmetric Orthogonalization.

  SCF Guess: Superposition of Atomic Densities via on-the-fly atomic UHF.

  ==> Iterations <==

                           Total Energy        Delta E     RMS |[F,P]|

   @DF-RHF iter   0:  -456.91473679602620   -4.56915e+02   2.89010e-02 
[...]
     12   C                0.00 -0.00  0.00    0.01 -0.01  0.00   -0.10  0.06 -0.03   
     13   H               -0.02  0.01 -0.01   -0.04  0.02 -0.03    0.38 -0.26  0.33   
     14   H               -0.01  0.02 -0.00   -0.04  0.04  0.01    0.35 -0.44 -0.03   
     15   H               -0.02  0.00 -0.01   -0.06  0.01 -0.01    0.57 -0.12  0.07   
     16   C               -0.03 -0.12 -0.07    0.01  0.02  0.01   -0.00 -0.00  0.00   
     17   H                0.28  0.29  0.41   -0.09 -0.04 -0.02    0.03  0.00 -0.01   
     18   H               -0.10  0.52  0.19    0.01 -0.09  0.01   -0.00  0.02  0.00   
     19   H                0.19  0.42  0.08   -0.02 -0.00 -0.01    0.02 -0.01  0.01   

  Vibration                       40                  41                  42          
  Freq [cm^-1]                1513.7653           1519.4255           1522.3754       
  Irrep                           A                   A                   A           
  Reduced mass [u]              1.0721              1.0483              1.0463        
  Force const [mDyne/A]         1.4474              1.4259              1.4288        
  Turning point v=0 [a0]        0.2724              0.2749              0.2749        
  RMS dev v=0 [a0 u^1/2]        0.1994              0.1990              0.1989        
  Char temp [K]               2177.9679           2186.1116           2190.3558       
  ----------------------------------------------------------------------------------
      1   C                0.00  0.00  0.00   -0.00 -0.00 -0.00   -0.00 -0.00 -0.00   
      2   O                0.00  0.00 -0.00   -0.00 -0.00  0.00   -0.00 -0.00  0.00   
      3   C               -0.00  0.03  0.00    0.01  0.01  0.01   -0.01 -0.00 -0.01   
      4   H               -0.00 -0.04  0.01   -0.01 -0.03  0.00    0.04 -0.02  0.01   
      5   N               -0.01 -0.03 -0.00   -0.00  0.01 -0.01    0.00  0.02 -0.00   
      6   O               -0.00  0.00 -0.00    0.00 -0.00  0.00   -0.00 -0.00  0.00   
      7   N                0.00 -0.00  0.00    0.00  0.00  0.00    0.00 -0.00 -0.00   
      8   C                0.00  0.01 -0.02   -0.03  0.03 -0.03   -0.01  0.00 -0.01   
      9   H               -0.03 -0.04 -0.08    0.19 -0.19 -0.34    0.09 -0.05 -0.09   
     10   H                0.20 -0.04  0.18    0.39 -0.32  0.38    0.09 -0.10  0.09   
     11   H               -0.13  0.01  0.28   -0.20  0.04  0.40   -0.04  0.04  0.08   
     12   C                0.00 -0.00  0.00   -0.00  0.00  0.00    0.00 -0.00 -0.00   
     13   H               -0.01  0.01 -0.01    0.01 -0.02  0.01   -0.02  0.01 -0.01   
     14   H               -0.01  0.01  0.00    0.01  0.00 -0.01   -0.01 -0.01  0.01   
     15   H               -0.01  0.00  0.00    0.01 -0.01 -0.02   -0.00  0.01  0.02   
     16   C               -0.03 -0.01  0.04    0.02 -0.01 -0.01   -0.03  0.02 -0.03   
     17   H                0.56  0.06 -0.22   -0.25  0.01  0.19    0.05 -0.15 -0.35   
     18   H                0.01  0.41 -0.32    0.02 -0.16  0.01   -0.10 -0.00  0.55   
     19   H               -0.10 -0.40 -0.03   -0.10  0.24 -0.05    0.60 -0.21  0.29   

  Vibration                       43                  44                  45          
  Freq [cm^-1]                1536.7830           1541.2849           1549.4974       
  Irrep                           A                   A                   A           
  Reduced mass [u]              1.0486              1.0561              1.0486        
  Force const [mDyne/A]         1.4590              1.4782              1.4834        
  Turning point v=0 [a0]        0.2733              0.2720              0.2722        
  RMS dev v=0 [a0 u^1/2]        0.1979              0.1976              0.1971        
  Char temp [K]               2211.0852           2217.5624           2229.3784       
  ----------------------------------------------------------------------------------
      1   C                0.01 -0.00 -0.01    0.00 -0.00  0.00    0.00  0.01 -0.01   
      2   O                0.00  0.00  0.00    0.00 -0.00 -0.00   -0.00  0.00  0.00   
      3   C                0.00  0.00  0.00   -0.00 -0.02 -0.01   -0.00 -0.00  0.00   
      4   H               -0.00  0.00 -0.00    0.03  0.13  0.00    0.00 -0.00  0.00   
      5   N               -0.00  0.00  0.00   -0.02 -0.00  0.02    0.00  0.00 -0.00   
      6   O               -0.00 -0.00  0.00    0.00  0.00 -0.00   -0.00 -0.00  0.01   
      7   N               -0.00 -0.00 -0.01    0.00 -0.00 -0.00    0.01  0.01 -0.00   
      8   C               -0.00  0.00 -0.00   -0.04 -0.00  0.02    0.00  0.00  0.00   
      9   H                0.02 -0.00 -0.01    0.66  0.06 -0.01   -0.01 -0.00 -0.00   
     10   H                0.01 -0.01  0.01   -0.10 -0.40 -0.05   -0.00  0.00 -0.00   
     11   H               -0.00  0.01  0.00    0.14  0.46 -0.32    0.00 -0.01 -0.00   
     12   C                0.00 -0.03 -0.05    0.00  0.00  0.00    0.03  0.05 -0.02   
     13   H               -0.03  0.48 -0.15   -0.01 -0.01 -0.01   -0.45 -0.43 -0.22   
     14   H               -0.00 -0.40  0.25   -0.01  0.01  0.00   -0.41 -0.12  0.47   
     15   H                0.03  0.29  0.66   -0.01 -0.00 -0.01    0.38 -0.08  0.02   
     16   C                0.00 -0.00  0.00    0.00  0.01  0.01    0.00 -0.00  0.00   
     17   H               -0.01  0.01  0.02    0.08  0.02 -0.03   -0.01  0.00  0.01   
     18   H                0.00 -0.01 -0.02    0.02  0.05 -0.09    0.00 -0.00 -0.01   
     19   H               -0.02  0.01 -0.01   -0.07 -0.09 -0.03   -0.01  0.01 -0.00   

  Vibration                       46                  47                  48          
  Freq [cm^-1]                1699.3670           1820.5726           3065.2994       
  Irrep                           A                   A                   A           
  Reduced mass [u]              5.1171             10.7749              1.0348        
  Force const [mDyne/A]         8.7066             21.0417              5.7285        
  Turning point v=0 [a0]        0.1177              0.0783              0.1948        
  RMS dev v=0 [a0 u^1/2]        0.1882              0.1818              0.1401        
  Char temp [K]               2445.0070           2619.3946           4410.2766       
  ----------------------------------------------------------------------------------
      1   C               -0.03  0.01  0.01   -0.51 -0.16  0.56   -0.00 -0.00  0.00   
      2   O                0.02  0.01 -0.00    0.01  0.01 -0.02    0.00 -0.00 -0.00   
      3   C                0.14  0.43 -0.07    0.04 -0.05  0.01   -0.00  0.00 -0.00   
      4   H               -0.07 -0.52 -0.17   -0.01  0.03 -0.02    0.00  0.00 -0.00   
      5   N               -0.12 -0.34  0.07    0.01  0.03 -0.01    0.00 -0.00  0.00   
      6   O               -0.00 -0.00  0.00    0.06  0.10 -0.18    0.00  0.00 -0.00   
      7   N                0.02 -0.00 -0.01    0.37 -0.01 -0.23    0.00 -0.00 -0.00   
      8   C                0.03  0.03  0.01    0.00 -0.01 -0.01   -0.00 -0.00 -0.00   
      9   H                0.10  0.21  0.23   -0.04 -0.02 -0.00   -0.00  0.00 -0.00   
     10   H               -0.06 -0.03 -0.08    0.02  0.02  0.01   -0.00 -0.00  0.00   
     11   H                0.02  0.23  0.02   -0.02 -0.03  0.04    0.01 -0.00  0.00   
     12   C               -0.00 -0.00 -0.00   -0.02  0.01 -0.02    0.03 -0.03  0.03   
     13   H               -0.01  0.00 -0.01   -0.15  0.14 -0.15   -0.19  0.06  0.32   
     14   H               -0.01  0.01  0.00   -0.16  0.17  0.04   -0.33 -0.30 -0.38   
     15   H               -0.00 -0.00 -0.00   -0.16  0.06  0.04    0.21  0.62 -0.28   
     16   C               -0.03 -0.07 -0.03   -0.01  0.01  0.00    0.00  0.00  0.00   
     17   H               -0.18 -0.13 -0.04    0.02  0.03  0.03    0.00 -0.00  0.00   
     18   H               -0.04 -0.20  0.07    0.01 -0.01 -0.03   -0.00 -0.00 -0.00   
     19   H                0.13  0.23  0.07   -0.01  0.01 -0.00    0.00  0.00 -0.00   

  Vibration                       49                  50                  51          
  Freq [cm^-1]                3090.2772           3113.2397           3139.7012       
  Irrep                           A                   A                   A           
  Reduced mass [u]              1.0453              1.0325              1.1035        
  Force const [mDyne/A]         5.8812              5.8960              6.4090        
  Turning point v=0 [a0]        0.1931              0.1935              0.1864        
  RMS dev v=0 [a0 u^1/2]        0.1396              0.1391              0.1385        
  Char temp [K]               4446.2140           4479.2519           4517.3241       
  ----------------------------------------------------------------------------------
      1   C                0.00  0.00 -0.00   -0.00 -0.00  0.00    0.00  0.00  0.00   
      2   O                0.00  0.00  0.00   -0.00  0.00  0.00   -0.00 -0.00 -0.00   
      3   C               -0.00  0.00 -0.00   -0.00  0.00  0.00    0.00 -0.00  0.00   
      4   H               -0.01 -0.00  0.02    0.01 -0.00 -0.02    0.00 -0.00 -0.00   
      5   N                0.00  0.00 -0.00   -0.00 -0.00  0.00   -0.00  0.00 -0.00   
      6   O                0.00 -0.00  0.00    0.00  0.00 -0.00   -0.00 -0.00 -0.00   
      7   N               -0.00 -0.00  0.00    0.00  0.00 -0.00   -0.00  0.00  0.00   
      8   C                0.00  0.00  0.00   -0.02 -0.03 -0.03    0.00  0.00 -0.00   
      9   H                0.00 -0.01  0.00   -0.05  0.35 -0.26    0.00 -0.00  0.00   
     10   H                0.01 -0.00 -0.01   -0.38  0.00  0.38    0.00  0.00 -0.00   
     11   H               -0.01  0.00 -0.01    0.66 -0.03  0.28   -0.00  0.00 -0.00   
     12   C                0.00 -0.00  0.00   -0.00  0.00 -0.00   -0.05 -0.08 -0.02   
     13   H               -0.00  0.00  0.00   -0.00  0.00  0.00   -0.00 -0.02 -0.03   
     14   H               -0.00 -0.00 -0.00    0.00  0.00  0.00    0.44  0.37  0.51   
     15   H                0.00  0.00 -0.00   -0.00 -0.01  0.00    0.18  0.55 -0.26   
     16   C               -0.05 -0.03 -0.02   -0.00 -0.00 -0.00   -0.00  0.00  0.00   
     17   H               -0.12  0.30 -0.18   -0.00  0.01 -0.00    0.00 -0.00  0.00   
     18   H                0.85  0.05  0.12    0.02  0.00  0.00    0.00  0.00 -0.00   
     19   H               -0.17 -0.02  0.29   -0.00 -0.00  0.01    0.00 -0.00 -0.00   

  Vibration                       52                  53                  54          
  Freq [cm^-1]                3185.1446           3189.6350           3215.3929       
  Irrep                           A                   A                   A           
  Reduced mass [u]              1.1011              1.0899              1.1000        
  Force const [mDyne/A]         6.5815              6.5330              6.7005        
  Turning point v=0 [a0]        0.1853              0.1861              0.1845        
  RMS dev v=0 [a0 u^1/2]        0.1375              0.1374              0.1368        
  Char temp [K]               4582.7069           4589.1676           4626.2274       
  ----------------------------------------------------------------------------------
      1   C               -0.00  0.00 -0.00   -0.00 -0.00  0.00   -0.00 -0.00  0.00   
      2   O               -0.00 -0.00  0.00   -0.00  0.00  0.00   -0.00  0.00  0.00   
      3   C                0.00  0.00 -0.00   -0.00 -0.00  0.00    0.02  0.00 -0.05   
      4   H               -0.00  0.00  0.00    0.01  0.00 -0.03   -0.24  0.01  0.61   
      5   N                0.00 -0.00  0.00    0.00  0.00 -0.00   -0.00 -0.00  0.00   
      6   O                0.00 -0.00  0.00    0.00  0.00 -0.00    0.00  0.00  0.00   
      7   N                0.00  0.00  0.00    0.00  0.00 -0.00    0.00 -0.00 -0.00   
      8   C                0.00  0.00  0.00    0.00 -0.00  0.00   -0.07  0.02  0.00   
      9   H                0.00 -0.00  0.00   -0.00  0.00 -0.00    0.01 -0.17  0.13   
     10   H                0.00 -0.00 -0.00   -0.00 -0.00  0.00    0.34  0.00 -0.36   
     11   H               -0.00  0.00 -0.00   -0.00 -0.00 -0.00    0.46 -0.02  0.20   
     12   C                0.03 -0.00 -0.09   -0.00 -0.00 -0.00   -0.00 -0.00  0.00   
     13   H               -0.49  0.15  0.78   -0.00  0.00  0.00    0.00 -0.00 -0.00   
     14   H                0.15  0.13  0.15    0.00  0.00  0.00   -0.00 -0.00 -0.00   
     15   H               -0.07 -0.23  0.09    0.00  0.00 -0.00    0.00  0.00 -0.00   
     16   C               -0.00  0.00 -0.00    0.07 -0.05  0.00   -0.00 -0.01  0.01   
     17   H                0.00 -0.00  0.00   -0.22  0.63 -0.38   -0.03  0.08 -0.05   
     18   H                0.00  0.00  0.00   -0.46 -0.03 -0.06   -0.01 -0.00  0.00   
     19   H               -0.00 -0.00 -0.00   -0.19 -0.03  0.39    0.06  0.01 -0.10   

  Vibration                       55                  56                  57          
  Freq [cm^-1]                3221.0178           3243.3853           3246.0240       
  Irrep                           A                   A                   A           
  Reduced mass [u]              1.0983              1.1037              1.1058        
  Force const [mDyne/A]         6.7137              6.8410              6.8651        
  Turning point v=0 [a0]        0.1845              0.1834              0.1831        
  RMS dev v=0 [a0 u^1/2]        0.1367              0.1362              0.1362        
  Char temp [K]               4634.3204           4666.5022           4670.2986       
  ----------------------------------------------------------------------------------
      1   C               -0.00  0.00  0.00   -0.00 -0.00  0.00    0.00 -0.00 -0.00   
      2   O               -0.00 -0.00  0.00   -0.00  0.00  0.00    0.00 -0.00 -0.00   
      3   C                0.02  0.00 -0.06    0.01  0.00 -0.02   -0.01 -0.00  0.01   
      4   H               -0.26  0.02  0.65   -0.08  0.01  0.21    0.06 -0.00 -0.16   
      5   N                0.00 -0.00  0.00   -0.00 -0.00 -0.00   -0.00  0.00  0.00   
      6   O                0.00 -0.00  0.00    0.00 -0.00  0.00   -0.00  0.00 -0.00   
      7   N                0.00 -0.00 -0.00    0.00 -0.00 -0.00   -0.00  0.00  0.00   
      8   C                0.06 -0.02  0.01   -0.00 -0.02  0.02   -0.02 -0.05  0.07   
      9   H               -0.02  0.25 -0.18   -0.03  0.21 -0.16   -0.08  0.62 -0.46   
     10   H               -0.27 -0.00  0.29    0.10 -0.00 -0.10    0.38 -0.00 -0.38   
     11   H               -0.41  0.02 -0.18   -0.05 -0.00 -0.02   -0.07 -0.01 -0.01   
     12   C               -0.00 -0.00  0.00   -0.00 -0.00  0.00   -0.00 -0.00 -0.00   
     13   H                0.00 -0.00 -0.00    0.00 -0.00 -0.00    0.00 -0.00  0.00   
     14   H                0.00 -0.00  0.00   -0.00 -0.00 -0.00    0.00  0.00  0.00   
     15   H                0.00  0.00 -0.00    0.00  0.00 -0.00   -0.00  0.00  0.00   
     16   C               -0.00 -0.01  0.02    0.02  0.04 -0.07   -0.01 -0.01  0.02   
     17   H               -0.04  0.11 -0.06    0.15 -0.40  0.23   -0.04  0.12 -0.07   
     18   H               -0.00 -0.00  0.00   -0.09  0.00 -0.02    0.03  0.00  0.01   
     19   H                0.09  0.01 -0.16   -0.36 -0.04  0.68    0.11  0.01 -0.20   

  ==> Thermochemistry Components <==

  Entropy, S
    Electronic S            0.000 [cal/(mol K)]        0.000 [J/(mol K)]       0.00000000 [mEh/K] (multiplicity = 1)
    Translational S        40.502 [cal/(mol K)]      169.460 [J/(mol K)]       0.06454374 [mEh/K] (mol. weight = 130.0742 [u], P = 101325.00 [Pa])
    Rotational S           28.944 [cal/(mol K)]      121.101 [J/(mol K)]       0.04612479 [mEh/K] (symmetry no. = 1)
    Vibrational S          26.566 [cal/(mol K)]      111.150 [J/(mol K)]       0.04233493 [mEh/K]
  Total S                  96.011 [cal/(mol K)]      401.711 [J/(mol K)]       0.15300346 [mEh/K]
  Correction S              0.000 [cal/(mol K)]        0.000 [J/(mol K)]       0.00000000 [mEh/K]

  Constant volume heat capacity, Cv
    Electronic Cv           0.000 [cal/(mol K)]        0.000 [J/(mol K)]       0.00000000 [mEh/K]
    Translational Cv        2.981 [cal/(mol K)]       12.472 [J/(mol K)]       0.00475022 [mEh/K]
    Rotational Cv           2.981 [cal/(mol K)]       12.472 [J/(mol K)]       0.00475022 [mEh/K]
    Vibrational Cv         28.290 [cal/(mol K)]      118.363 [J/(mol K)]       0.04508224 [mEh/K]
  Total Cv                 34.251 [cal/(mol K)]      143.307 [J/(mol K)]       0.05458269 [mEh/K]
  Correction Cv             0.000 [cal/(mol K)]        0.000 [J/(mol K)]       0.00000000 [mEh/K]

  Constant pressure heat capacity, Cp
    Electronic Cp           0.000 [cal/(mol K)]        0.000 [J/(mol K)]       0.00000000 [mEh/K]
    Translational Cp        4.968 [cal/(mol K)]       20.786 [J/(mol K)]       0.00791704 [mEh/K]
    Rotational Cp           2.981 [cal/(mol K)]       12.472 [J/(mol K)]       0.00475022 [mEh/K]
    Vibrational Cp         28.290 [cal/(mol K)]      118.363 [J/(mol K)]       0.04508224 [mEh/K]
  Total Cp                 36.238 [cal/(mol K)]      151.621 [J/(mol K)]       0.05774950 [mEh/K]
  Correction Cp             0.000 [cal/(mol K)]        0.000 [J/(mol K)]       0.00000000 [mEh/K]

  ==> Thermochemistry Energy Analysis <==

  Raw electronic energy, E0
  Total E0, Electronic energy at well bottom at 0 [K]                 -455.01934942 [Eh]

  Zero-point energy, ZPE_vib = Sum_i nu_i / 2
    Electronic ZPE          0.000 [kcal/mol]        0.000 [kJ/mol]       0.00000000 [Eh]
    Translational ZPE       0.000 [kcal/mol]        0.000 [kJ/mol]       0.00000000 [Eh]
    Rotational ZPE          0.000 [kcal/mol]        0.000 [kJ/mol]       0.00000000 [Eh]
    Vibrational ZPE        99.123 [kcal/mol]      414.732 [kJ/mol]       0.15796304 [Eh]       34668.876 [cm^-1]
  Correction ZPE           99.123 [kcal/mol]      414.732 [kJ/mol]       0.15796304 [Eh]       34668.876 [cm^-1]
  Total ZPE, Electronic energy at 0 [K]                               -454.86138638 [Eh]

  Thermal Energy, E (includes ZPE)
    Electronic E            0.000 [kcal/mol]        0.000 [kJ/mol]       0.00000000 [Eh]
    Translational E         0.889 [kcal/mol]        3.718 [kJ/mol]       0.00141628 [Eh]
    Rotational E            0.889 [kcal/mol]        3.718 [kJ/mol]       0.00141628 [Eh]
    Vibrational E         103.442 [kcal/mol]      432.802 [kJ/mol]       0.16484550 [Eh]
  Correction E            105.220 [kcal/mol]      440.239 [kJ/mol]       0.16767805 [Eh]
  Total E, Electronic energy at  298.15 [K]                           -454.85167137 [Eh]

  Enthalpy, H_trans = E_trans + k_B * T
    Electronic H            0.000 [kcal/mol]        0.000 [kJ/mol]       0.00000000 [Eh]
    Translational H         1.481 [kcal/mol]        6.197 [kJ/mol]       0.00236046 [Eh]
    Rotational H            0.889 [kcal/mol]        3.718 [kJ/mol]       0.00141628 [Eh]
    Vibrational H         103.442 [kcal/mol]      432.802 [kJ/mol]       0.16484550 [Eh]
  Correction H            105.812 [kcal/mol]      442.718 [kJ/mol]       0.16862224 [Eh]
  Total H, Enthalpy at  298.15 [K]                                    -454.85072718 [Eh]

  Gibbs free energy, G = H - T * S
    Electronic G            0.000 [kcal/mol]        0.000 [kJ/mol]       0.00000000 [Eh]
    Translational G       -10.594 [kcal/mol]      -44.327 [kJ/mol]      -0.01688325 [Eh]
    Rotational G           -7.741 [kcal/mol]      -32.388 [kJ/mol]      -0.01233583 [Eh]
    Vibrational G          95.522 [kcal/mol]      399.662 [kJ/mol]       0.15222334 [Eh]
  Correction G             77.186 [kcal/mol]      322.948 [kJ/mol]       0.12300426 [Eh]
  Total G, Free enthalpy at  298.15 [K]                               -454.89634517 [Eh]

    Psi4 stopped on: Tuesday, 15 January 2019 10:55AM
    Psi4 wall time for execution: 1:33:57.75

*** Psi4 exiting successfully. Buy a developer a beer!
