[Molden Format]

[FREQ]
        -387.8758583278
          62.0597989337
          74.9356967659
         162.9158243417
         192.3121076366
         211.0281667373
         221.5392344277
         235.2387100334
         283.7142909532
         290.9168449614
         391.4967847356
         464.1074700683
         559.3917384686
         574.0954617996
         643.9283758221
         694.5805691155
         790.5999029316
         877.2687215217
         930.7965241488
        1000.9430897922
        1017.3028803226
        1090.8047299122
        1140.3581470055
        1144.8114949236
        1161.6561351332
        1170.9902858821
        1184.4869646721
        1234.4164185900
        1283.9122180468
        1410.7131297452
        1461.8333121370
        1478.5715355531
        1483.8615101176
        1513.7653024075
        1519.4254764401
        1522.3753578174
        1536.7829893729
        1541.2848802607
        1549.4974214594
        1699.3669943658
        1820.5725946451
        3065.2993699989
        3090.2771576321
        3113.2396836512
        3139.7012003836
        3185.1445693885
        3189.6350060456
        3215.3928993337
        3221.0178022995
        3243.3853214483
        3246.0239520615

[FR-COORD]
C          1.5336645708       -0.2355244699       -0.4922927181
O         -0.6887513088        1.4512559440       -1.5098147816
C         -2.9636619822       -0.6299644625        1.3791549104
H         -3.7328181453       -0.5803301017        3.2893506674
N         -2.3693968707        1.5934029964        0.4457085043
O          0.9445338962       -1.3877093200        1.5323470933
N          3.3929137601       -0.0555841100       -2.0181670831
C         -2.0090831028        3.8320316042        2.0218435299
H         -2.2071687423        5.4853448669        0.8109088865
H         -3.4510431218        3.8492483730        3.4959612355
H         -0.1108244764        3.7681901116        2.8387358861
C          5.5662170208       -1.6299565298       -1.3314494942
H          6.6730823334       -1.9797858658       -3.0383132472
H          6.7785029635       -0.6438611056        0.0304045414
H          5.0018801498       -3.4440400641       -0.4976224592
C         -3.4934862725       -2.8872938396       -0.2080740082
H         -2.8752318525       -4.5817411501        0.7935106113
H         -5.5442305829       -3.0108240710       -0.5035912276
H         -2.5438133871       -2.7737153930       -2.0312768821

[FR-NORM-COORD]
vibration 1
          -0.1719676431        0.1386581830       -0.0859507233
           0.0843856349       -0.0280214030       -0.0213308034
           0.4588251851       -0.1286796798        0.0576296515
           0.6244683416       -0.2220457609        0.1343491757
          -0.1007930391        0.0520095117       -0.0688230486
          -0.2314919574        0.0353675503       -0.0156489143
          -0.0246567838       -0.0019423560        0.0706787478
           0.0448982158       -0.0278536167        0.0023157539
           0.0795585661        0.0236932461        0.0656428297
           0.0256353299       -0.0145473409       -0.0132492233
           0.0310401196       -0.0654174409        0.0453598637
          -0.0507790029       -0.0200998248        0.0510748068
          -0.0765397077       -0.0400844255        0.0387778079
          -0.0222902327       -0.0122045773        0.0177719988
          -0.0513975880       -0.0088891104        0.0742975116
           0.0260312625       -0.0085495540       -0.0035427451
          -0.0949086929       -0.1150428461       -0.1107696399
          -0.0054254468        0.2430705869        0.1202483473
          -0.0879046856       -0.0468124574       -0.0676327024
vibration 2
          -0.0065384680       -0.0070200150       -0.0245538526
          -0.0216796401       -0.0317605520       -0.0243328827
          -0.0020485423        0.0065156309        0.0208705657
           0.0265396281        0.0278054248        0.0319070525
           0.0080210620       -0.0056046218       -0.0009069096
          -0.0016592000       -0.0383204797       -0.0417519261
           0.0149569822        0.0399251501        0.0053166359
           0.0525091572        0.0016398199       -0.0211836239
           0.0473497095       -0.0047406703       -0.0289960526
           0.0773398585        0.0235552881        0.0026915641
           0.0656355514       -0.0088966798       -0.0524263062
           0.0062162502        0.0395268127        0.0394554197
           0.3151452707        0.4757752666        0.1520042434
          -0.2873057279       -0.1985157495        0.4747906152
          -0.0305612644       -0.1782185967       -0.4590692528
          -0.0487642260        0.0011253789        0.0451027291
          -0.0422571902        0.0026147968        0.0435266215
          -0.0554268518        0.0147500952        0.0853623738
          -0.0816816686       -0.0163119087        0.0270193874
vibration 3
          -0.0109982268       -0.0457059475       -0.0194645202
          -0.0333584792       -0.0738336137       -0.0414881862
          -0.0346479454        0.0107464053        0.0186418433
           0.0161011671        0.0462550949        0.0384988602
           0.0148941872       -0.0128152708       -0.0060224632
          -0.0493013387       -0.1092427485       -0.0669267286
           0.0320421149        0.0708354953        0.0477136389
           0.1387007382       -0.0211383356       -0.0206604741
           0.1597998590       -0.0171847325       -0.0186319527
           0.1863723926        0.0320216541        0.0254649474
           0.1624891674       -0.0850924326       -0.0804657366
           0.0914093748        0.1571554750        0.0525210161
          -0.1058584436       -0.1369899697       -0.0166371342
           0.2555617194        0.4017171357       -0.2717818536
           0.1882414928        0.3037808182        0.4360957474
          -0.1551181172        0.0226332730        0.0427669554
          -0.1860365600        0.0051276736        0.0321961468
          -0.1676160853        0.0920781920        0.0998182986
          -0.1987485333       -0.0150780327        0.0180128976
vibration 4
          -0.0455898140        0.0177275006       -0.0284161218
          -0.0712938372       -0.0243885785       -0.0613491095
          -0.0546838642       -0.0020749825       -0.0482557207
          -0.0599953582       -0.0237284773       -0.0508855790
          -0.0356495992       -0.0021460176       -0.0290348359
           0.0323625630        0.1823353234        0.0837753255
          -0.0941022007       -0.1100417263       -0.1029041270
           0.2061503668       -0.1232659139        0.0994528338
           0.5037081649       -0.0374611371        0.1706299260
           0.1475427683        0.0104012417        0.0407503430
           0.1611669411       -0.4583255913        0.1776575434
          -0.0319656495        0.0644475826        0.1076789169
           0.1013581815        0.0527605946        0.1974141916
          -0.1878016033        0.2086891801        0.1427136756
           0.0326957288        0.0689045771        0.1610659277
           0.0512941870       -0.0155866771       -0.0610885636
           0.0324122888        0.0044174111       -0.0143790080
           0.0676295028       -0.0576564745       -0.1548668876
           0.1311707359       -0.0163991378       -0.0188070054
vibration 5
           0.0083409328        0.0068437031        0.0198440135
           0.0220367407       -0.0055233701        0.0065937748
          -0.0100477032        0.0074822738       -0.0034390566
          -0.0187625512        0.0350917818       -0.0061457383
          -0.0084656485        0.0016789801       -0.0207064809
          -0.0140996522       -0.0106057632        0.0066647040
           0.0125825888        0.0314404302        0.0282622329
          -0.0114314555       -0.0070498277       -0.0024035439
           0.5349144341       -0.0299562178       -0.1205088863
          -0.3598308334        0.2795648230       -0.3467842616
          -0.2111539730       -0.2735779904        0.4460121239
           0.0133242887       -0.0001775263       -0.0600341101
          -0.0258808906        0.0439488896       -0.0946931738
           0.0515018922       -0.0518353655       -0.0566398164
           0.0188479413       -0.0229608991       -0.1052971276
          -0.0118624910       -0.0167297952        0.0326517703
          -0.0056146322        0.0006440588        0.0583512798
          -0.0125002937       -0.0259344930        0.0409613566
          -0.0156614287       -0.0444995061        0.0286647031
vibration 6
           0.0048098025        0.0010390695       -0.0206071701
          -0.0035922345        0.0148956731       -0.0029104135
          -0.0004515844       -0.0001705475        0.0018111203
           0.0243569841       -0.0058462895        0.0120743180
           0.0028086326       -0.0000816813        0.0033585808
           0.0114699626        0.0019103748       -0.0223037164
           0.0092732393       -0.0097197123       -0.0166653404
          -0.0096383444        0.0003372732        0.0063606236
           0.0350026324       -0.0022288533       -0.0044397405
          -0.0443333915        0.0191322906       -0.0277641078
          -0.0287019322       -0.0167947507        0.0499795503
          -0.0092218171       -0.0147534071        0.0456641600
           0.0071758420       -0.0709825034        0.0677967716
          -0.0169687903        0.0114160474        0.0336724903
          -0.0363261808        0.0137068665        0.0888806190
          -0.0066668015        0.0056268346       -0.0026210417
           0.5079877783        0.0413358136       -0.2589648510
          -0.0537278047       -0.3143388916        0.4698417814
          -0.4353075387        0.2883714276       -0.2104620593
vibration 7
           0.0219053050        0.1221010117        0.0146670066
          -0.0464518659       -0.0034772027       -0.0590091451
          -0.0705670048        0.0041815678       -0.0394583112
          -0.0913997521        0.0510991225       -0.0493254261
          -0.0338024433       -0.0129012741       -0.0510576596
           0.0008149256        0.0394781420       -0.0480006014
           0.0922700939        0.2200208123        0.1080582781
           0.1114449421       -0.0705632009        0.0039875124
           0.0472606466       -0.0173659927        0.0883301014
           0.2443343331       -0.1049843260        0.1339459074
           0.1810068999       -0.1534892943       -0.1657259359
          -0.1246602220       -0.1370261131        0.0054316926
          -0.2674929070       -0.3151980896       -0.0518695228
           0.1134249833       -0.3613434263       -0.0449030068
          -0.4025406578       -0.0445897756        0.0171634593
           0.0474369886       -0.0964205778        0.0705284137
           0.1269578618        0.0018296519        0.1888097066
           0.0582367692       -0.2292130362        0.0522522019
           0.0740676666       -0.1597286160        0.0809215055
vibration 8
           0.0002610280       -0.0110836482        0.1456963425
           0.0058513995       -0.0920917062        0.0008205010
          -0.0209311722       -0.0137835936       -0.0199151594
          -0.0368627940       -0.0346249434       -0.0263336376
          -0.0382658145       -0.0104321334       -0.0396589658
          -0.0564601635        0.0681944270        0.1849496362
          -0.0262765558        0.0093119581        0.1249547793
           0.0831956582       -0.0147710842       -0.0682591535
          -0.0657072962       -0.0076329985       -0.0352359703
           0.2453279746       -0.0417707611        0.0916628578
           0.1709258724        0.0021792756       -0.2721930778
           0.0649218122        0.0276064819       -0.1921356487
          -0.0470939012        0.2742330003       -0.3155712118
           0.1340392910       -0.0984364232       -0.1622699743
           0.1941318667       -0.0997610772       -0.3785924033
          -0.0279922831        0.0332389845       -0.0918736227
           0.1756383565        0.0070757506       -0.2616230103
          -0.0473915013       -0.0787118558        0.0978755119
          -0.2072299195        0.2197715170       -0.1744110949
vibration 9
          -0.0936164727       -0.0694768943        0.0158824950
          -0.0369289694       -0.0215806679        0.0467911260
          -0.0303970848        0.0305869401        0.0264420635
          -0.1154748760       -0.0176006326       -0.0061410381
          -0.0031403694        0.0355858143        0.0599483262
          -0.0905396816       -0.1642695939       -0.0387336994
          -0.0937991755        0.0180374548        0.0312344107
           0.1043099623        0.1180077161       -0.0745429690
           0.1969436004        0.0353802333       -0.2023260603
           0.1172119644        0.3071732475       -0.0635671467
           0.1097861138        0.0683946071       -0.0912307423
          -0.0736172649        0.0554991866        0.0124483170
          -0.0798518811        0.0630594780        0.0064780135
          -0.0784537972        0.0900289037       -0.0076297849
          -0.0284316508        0.0506091394        0.0333309678
           0.2722229607        0.0039432609       -0.0509966008
           0.4286410681        0.0680811505       -0.0412224567
           0.3091286810       -0.2502890475       -0.1960665449
           0.3802760989        0.1398682842        0.0161796054
vibration 10
           0.0166451434        0.0515979780        0.0018754788
          -0.0824834162       -0.1269440248        0.0202564704
           0.0503978370       -0.0841928080        0.0914827101
           0.1039466029       -0.1745967126        0.1150337981
           0.0244261995       -0.0808462663        0.1060064969
           0.1572429958        0.0277800092        0.0280761225
           0.0015177451        0.0982881063       -0.0187207725
           0.0124874643        0.0488749199       -0.0988840780
           0.1400634236       -0.0911403043       -0.3115608346
          -0.0780628681        0.2701970954       -0.1899466149
          -0.0356194062        0.0889488473        0.0174643891
          -0.1064272854       -0.0320825650        0.0527030110
          -0.1102055526       -0.1705581354        0.0782510054
          -0.0501029353       -0.0894302894        0.0441675527
          -0.2636117594        0.0404102738        0.1019026884
          -0.0533701108        0.0979449896       -0.1450126820
          -0.2186336728       -0.0814200286       -0.3487714528
          -0.0585232508        0.3098634302       -0.2052079639
          -0.0204887743        0.2511308327       -0.1162730662
vibration 11
          -0.0791874564        0.0842787034        0.0363574386
           0.3509907096        0.0445647892        0.1872989918
          -0.0428142521       -0.0593811765       -0.1119379318
          -0.2030578638        0.0294777749       -0.1768922004
           0.0982033112       -0.0548548386       -0.0282291827
           0.0599296910       -0.0258204807        0.0581969771
          -0.1651079845        0.0545261109       -0.0848823705
           0.0778183165       -0.0070374692       -0.1182215843
           0.0088824442       -0.0728046437       -0.1992935535
           0.1353235526        0.0476106320       -0.0636472524
           0.1124816544        0.0683042608       -0.1955234472
          -0.2113894185        0.1183021934        0.0098947766
          -0.1355346655        0.0587346248        0.0705976786
          -0.2622675025        0.1644794048        0.0249882811
          -0.2212200783        0.1436440174        0.0617894823
          -0.1285605418       -0.1521426575        0.0112615589
          -0.0923627986       -0.0827453229        0.1105206194
          -0.1473701145       -0.1552139499        0.1454047124
          -0.2130725982       -0.3041291581       -0.0468686859
vibration 12
           0.0462136934        0.0453079202       -0.0050670997
          -0.1004779738        0.2461762470        0.0956600035
          -0.0219076085       -0.1395582756        0.0021250043
           0.0257209325       -0.2334019700        0.0283686501
          -0.0912111898       -0.0490399357        0.1180939542
          -0.0523685763        0.0644397815       -0.0432771901
           0.0646962226       -0.0774774894        0.0012784592
           0.0966612973        0.0834469527       -0.1059113586
           0.1973905494       -0.1082419875       -0.3851891027
           0.2008179926        0.4694777490       -0.0069840766
           0.1581136773        0.0403351735       -0.2531756662
           0.1243884870       -0.0555616102        0.0016910246
           0.1204238841       -0.0074473939       -0.0100010307
           0.1000698152       -0.0263359737        0.0000800641
           0.1699905192       -0.0756056818       -0.0118196068
          -0.0725803168       -0.1636011827       -0.0394371418
          -0.1042241725       -0.1684490776       -0.0234975012
          -0.0726292664       -0.1333296748       -0.0453347576
          -0.0586889262       -0.1906574295       -0.0368663782
vibration 13
           0.1032002486       -0.0925422965        0.1995376458
          -0.1027823703        0.2883203020       -0.0800171958
           0.1506839001        0.0180744464       -0.0050645871
           0.3869488778        0.0361657112        0.0838923211
          -0.1863784806        0.0347647550       -0.2014196082
           0.2313710144       -0.2494280215        0.1137135037
          -0.1085644823       -0.0040918860        0.0227908716
          -0.0000488234       -0.1216063100       -0.0993372573
           0.1393203159       -0.0213459601        0.0189237990
           0.0998630852       -0.0626730016       -0.0033961440
           0.0488802538       -0.3893676847       -0.2326010901
          -0.1053667595        0.0365841399        0.0212441690
          -0.0960147152        0.0161630926        0.0339663895
          -0.1273413034        0.0675436131        0.0169894635
          -0.1052628041        0.0475173125        0.0467599970
           0.0116450654        0.0713168738        0.0434915015
          -0.1039332705       -0.0129353629       -0.0341871795
          -0.0126861484        0.2674084563        0.1210018370
          -0.0789741283        0.0579580704       -0.0077662451
vibration 14
           0.0127139543        0.1075374196       -0.0414030808
           0.1265858785       -0.0000553768        0.1390088142
          -0.1147031581        0.0131991484        0.1943401444
          -0.2177350414        0.1563663686        0.1507081685
          -0.1745958288       -0.0819516193       -0.0631630882
          -0.0412712007        0.0183230865       -0.0900701196
           0.0475180869       -0.0285958239       -0.0619156956
          -0.0167448354       -0.1868646588       -0.1191767285
           0.0368921487       -0.1419219422       -0.0633907702
           0.0949668371       -0.1016512125       -0.0104251328
           0.0353641238       -0.3459861052       -0.2508314584
           0.0615734631       -0.0230495022       -0.0017150533
           0.0925027833       -0.0294798327        0.0195466951
           0.0308448940        0.0015899730        0.0070772184
           0.0600496250       -0.0176553323        0.0093701757
           0.0532568485        0.1741049196        0.0718013074
           0.0491187268        0.0407888913       -0.1615266681
           0.0843694961        0.1583901961       -0.1420728615
           0.1917642313        0.5144069546        0.1662569227
vibration 15
          -0.0433537771       -0.1904557524       -0.0295839974
          -0.0343072909        0.2353602374       -0.1226790987
           0.0121346351       -0.0130723787        0.0854371573
           0.0552928698        0.1619754532        0.0887512554
           0.3511146253       -0.1992296153        0.0659610346
          -0.1676216233        0.1152356200        0.0411637213
          -0.0350510743        0.0608205047        0.0749308056
           0.0063000421       -0.2290305723       -0.1240263404
          -0.0939460799       -0.3481060163       -0.2700822583
          -0.1401738457       -0.2743738946       -0.2722511260
          -0.0590404988        0.1102454941        0.0610776477
          -0.0794105110        0.0372475985       -0.0025125475
          -0.1149267023        0.0383447880       -0.0259446899
          -0.0363766066       -0.0069197374       -0.0074974340
          -0.0905327239        0.0310232690       -0.0266026497
           0.0324925534        0.0826176055        0.0577845893
           0.0121053185       -0.0162870058       -0.1019144101
           0.0489193393        0.1164644477       -0.0511055924
           0.0872911858        0.2697151141        0.0952885237
vibration 16
           0.3266993279        0.5415786052        0.4520405246
          -0.1080048960       -0.0674057705       -0.1072344361
           0.0136506921        0.0075342188       -0.0193737058
           0.0598381707        0.0407433826       -0.0050681002
           0.2045383831       -0.0596370011        0.0392416641
          -0.2062552043       -0.1314794650       -0.1189269088
          -0.1073319399       -0.1809063851       -0.1551897147
           0.0142405531       -0.0508607509       -0.0127045253
          -0.0673475902       -0.0977326536       -0.0637303392
          -0.0838320870       -0.1385958053       -0.1100663744
          -0.0381659352        0.1733611813        0.1354026307
          -0.0372323108        0.0212973373       -0.0020317054
           0.0620231247        0.0295401842        0.0634435476
          -0.1528451702        0.1440844603        0.0073773219
           0.0222989525        0.0172029892        0.0465488946
          -0.0004274896        0.0099774034        0.0071015282
           0.0323836584        0.0321625805        0.0259926620
           0.0022615810       -0.0291811225        0.0166818430
           0.0266603562        0.0220768254        0.0230008135
vibration 17
          -0.3034421909        0.2713454960       -0.0811925574
          -0.0064653387        0.0458912117       -0.0911480111
          -0.0384911221        0.0027752040        0.0035040832
          -0.2286673397        0.1040935578       -0.0776970627
           0.0714639082       -0.0273043579        0.0395966625
           0.2341573793       -0.0444872577       -0.1017568763
          -0.0733372869       -0.1890948184        0.2880011742
           0.0069093234       -0.0391455594       -0.0190695159
          -0.0514805544       -0.0611665151       -0.0399098605
          -0.0482850346       -0.0899304686       -0.0748480996
          -0.0225559900        0.0678990906        0.0616654394
           0.0302543205       -0.0249396216        0.0092923934
          -0.2207170189        0.3270797362       -0.2295480827
           0.1698964086        0.0345040551       -0.1515104004
           0.4517166309       -0.1933828038       -0.0557920864
          -0.0048969238        0.0214081769        0.0072269962
           0.0367400249        0.0439628856        0.0174342859
          -0.0013039701       -0.0223483854       -0.0023840779
           0.0141953766        0.0179725930        0.0177586738
vibration 18
          -0.0169494845       -0.0015716820       -0.0137026245
          -0.0998683762       -0.0369881502        0.1535847681
           0.0642153693        0.0450945593       -0.1547246562
          -0.1008124159       -0.1439609533       -0.2249400469
           0.0229939482        0.0198004934        0.0492007857
           0.0001139502        0.0125212376       -0.0158233025
          -0.0023861172        0.0083077108       -0.0035711195
          -0.0123731897       -0.1185137705       -0.0766941842
          -0.0055613941       -0.1574056907       -0.1304729963
          -0.0030114170       -0.0677601674       -0.0724456351
          -0.0029299812       -0.0878631177       -0.0937903439
           0.0303974036       -0.0193752227        0.0072351502
           0.0214148680       -0.0113693941       -0.0002455863
           0.0292951385       -0.0140158404        0.0031447837
           0.0355750027       -0.0210764876        0.0050536888
           0.0607202803        0.1285832242       -0.0119591980
          -0.0125102819        0.3528486926        0.4198845140
          -0.0056971921        0.1802147166        0.4008785906
          -0.1593036131       -0.4392665812       -0.1525682443
vibration 19
          -0.0030778216        0.0003708662       -0.0002677694
           0.0180697717       -0.0093988977        0.0156587632
          -0.0561228987        0.0283321000       -0.0241948851
           0.7521163617       -0.1970449082        0.3016919620
          -0.0030984837        0.0172165029        0.0162281623
           0.0114888437        0.0076924919       -0.0084062916
          -0.0011020719       -0.0076929430        0.0119741207
          -0.0001820337       -0.0325237406       -0.0192272518
          -0.0334296534       -0.0475176428       -0.0362387913
          -0.0318238737       -0.0343116623       -0.0506562422
          -0.0065430762        0.0327432422        0.0018841793
          -0.0045712188        0.0022286158        0.0007079508
          -0.0158601955        0.0155554125       -0.0095424499
           0.0053142136       -0.0005554492       -0.0054562884
           0.0105715697       -0.0052214106       -0.0038230726
          -0.0527245507        0.0248583687       -0.0207060521
           0.1591501224        0.2161565437        0.1769317512
           0.0010589050       -0.3371434675       -0.1982712633
           0.1379641315       -0.0249292146        0.0748480261
vibration 20
          -0.1869630035        0.1028400259       -0.0131733602
          -0.0563491517        0.0291002721        0.0215182278
           0.0423063243        0.0457614112        0.0370995790
          -0.1106344915        0.2812060591       -0.0299821020
           0.0645519533        0.0525275360       -0.0101549166
           0.0042728343       -0.1076568446        0.1597810622
          -0.1094712022        0.1736065949       -0.1773461704
           0.0320822869       -0.0462711426       -0.0603746552
          -0.0785423191        0.0392608156        0.0734224117
          -0.0905429241       -0.2868362127       -0.1806677503
          -0.0394813197        0.0678149007        0.1217888777
           0.2695257616       -0.1515954898        0.0437671199
           0.2862345403       -0.2525766063        0.0774146533
           0.1979698946       -0.1668884427        0.1043072885
           0.0483135522       -0.0696875982        0.0444264302
          -0.0741381426       -0.0553660481       -0.0253335548
           0.1371892567       -0.0127359715       -0.0786468320
          -0.0147058067       -0.3149123156       -0.2702694095
           0.1287694406        0.0659446512        0.0805608993
vibration 21
           0.0517940884       -0.0383647300       -0.0017482787
          -0.1209088611       -0.0297304033        0.1966412241
           0.0776847848        0.0945283437        0.0354875530
           0.0502918222        0.4270697104        0.0152649806
           0.0810376012        0.0833686528       -0.0919877887
           0.0190971963        0.0521573759       -0.0836702185
           0.0166982279       -0.0473531083        0.0634545784
           0.0199148583       -0.0150219421       -0.0855107265
           0.0034818838        0.2209831881        0.2406586739
          -0.0542304062       -0.3892772595       -0.1591195253
          -0.0450644614       -0.1375349630        0.0612868950
          -0.0655676754        0.0264339786        0.0003300245
          -0.1058335448        0.1057920582       -0.0415213046
          -0.0367247518        0.0555246503       -0.0444312541
           0.0553344403       -0.0198640015       -0.0123524522
          -0.0546207246       -0.1366416921       -0.0223689108
           0.0066170083       -0.2953703607       -0.3278701819
          -0.0120706073       -0.1439042729       -0.2856377475
           0.0483048983        0.1425938571        0.0360875468
vibration 22
          -0.0333986056       -0.0021078808        0.0284893346
           0.0070146967       -0.0087734827        0.0231542203
          -0.1091525792        0.0283460823       -0.0600328805
           0.4681057015       -0.1094607652        0.1679742323
           0.0276739595       -0.0095189682       -0.0194889884
          -0.0022232009        0.0159080845       -0.0328823641
          -0.0705986782        0.0375097310       -0.0184093465
          -0.0003098750        0.0215547671        0.0011824578
           0.0205012904        0.0528592227        0.0405548675
           0.0066561527       -0.0180496661        0.0075546458
           0.0021418906       -0.0408144725       -0.0117870081
           0.0553299004       -0.0382495217        0.0433443295
          -0.0673822736        0.0367391905       -0.0516867730
           0.1420505551       -0.0791393022       -0.0063503564
           0.1072360273       -0.0845964027       -0.0251050804
           0.1125928456       -0.0530984074        0.0467375941
          -0.2661094956       -0.3463730010       -0.2388440266
           0.0381261805        0.5054762256        0.2100418446
          -0.2293646702        0.0998156539       -0.1224726609
vibration 23
           0.0084917766       -0.0247053579        0.0175400290
          -0.0252143208       -0.0172624142        0.0474639771
           0.0663253326       -0.0364594504       -0.1083539858
           0.0275954639        0.2718750589       -0.1440558881
           0.0188056773       -0.0690722792       -0.0876599902
           0.0084543982        0.0228049303       -0.0342058750
          -0.0604124177        0.0130927350       -0.0235322529