[Molden Format]
[Atoms] (AU)
C    1    6        -0.036968991029      -1.326016000770       0.187934330554
O    2    8        -2.081891313213      -1.427612473001      -1.279293092206
H    3    1         1.348783090194      -1.355525668270       3.999290851210
H    4    1        -1.980010776845      -0.868091715929       3.680169059382
H    5    1         1.890355316926       4.648025215150      -2.058654251083
C    6    6         2.277630750224       2.673714974564      -1.557753026304
H    7    1         2.512724043891       1.562009125828      -3.288467084680
H    8    1         4.002936765888       2.591281618236      -0.445056465167
O    9    8         0.215642529814       1.755616912220      -0.099724700502
H   10    1        -1.816702474629       0.600407296553      -1.392383836861
C   11    6        -0.342267230857      -1.887609218078       2.952771305588
H   12    1        -0.668233144049      -3.913666201127       3.182962299967
H   13    1         1.725011251566      -2.041489364524      -0.639793013698
[GTO]
  1 0
 s    3  1.00
      172.2560000000         0.0617669000
       25.9109000000         0.3587940000
        5.5333500000         0.7007130000
 s    2  1.00
        3.6649800000        -0.3958970000
        0.7705450000         1.2158400000
 p    2  1.00
        3.6649800000         0.2364600000
        0.7705450000         0.8606190000
 s    1  1.00
        0.1958570000         1.0000000000
 p    1  1.00
        0.1958570000         1.0000000000

  2 0
 s    3  1.00
      322.0370000000         0.0592394000
       48.4308000000         0.3515000000
       10.4206000000         0.7076580000
 s    2  1.00
        7.4029400000        -0.4044530000
        1.5762000000         1.2215600000
 p    2  1.00
        7.4029400000         0.2445860000
        1.5762000000         0.8539550000
 s    1  1.00
        0.3736840000         1.0000000000
 p    1  1.00
        0.3736840000         1.0000000000

  3 0
 s    2  1.00
        5.4471780000         0.1562850000
        0.8245470000         0.9046910000
 s    1  1.00
        0.1831920000         1.0000000000

  4 0
 s    2  1.00
        5.4471780000         0.1562850000
        0.8245470000         0.9046910000
 s    1  1.00
        0.1831920000         1.0000000000

  5 0
 s    2  1.00
        5.4471780000         0.1562850000
        0.8245470000         0.9046910000
 s    1  1.00
        0.1831920000         1.0000000000

  6 0
 s    3  1.00
      172.2560000000         0.0617669000
       25.9109000000         0.3587940000
        5.5333500000         0.7007130000
 s    2  1.00
        3.6649800000        -0.3958970000
        0.7705450000         1.2158400000
 p    2  1.00
        3.6649800000         0.2364600000
        0.7705450000         0.8606190000
 s    1  1.00
        0.1958570000         1.0000000000
 p    1  1.00
        0.1958570000         1.0000000000

  7 0
 s    2  1.00
        5.4471780000         0.1562850000
        0.8245470000         0.9046910000
 s    1  1.00
        0.1831920000         1.0000000000

  8 0
 s    2  1.00
        5.4471780000         0.1562850000
        0.8245470000         0.9046910000
 s    1  1.00
        0.1831920000         1.0000000000

  9 0
 s    3  1.00
      322.0370000000         0.0592394000
       48.4308000000         0.3515000000
       10.4206000000         0.7076580000
 s    2  1.00
        7.4029400000        -0.4044530000
        1.5762000000         1.2215600000
 p    2  1.00
        7.4029400000         0.2445860000
        1.5762000000         0.8539550000
 s    1  1.00
        0.3736840000         1.0000000000
 p    1  1.00
        0.3736840000         1.0000000000

  10 0
 s    2  1.00
        5.4471780000         0.1562850000
        0.8245470000         0.9046910000
 s    1  1.00
        0.1831920000         1.0000000000

  11 0
 s    3  1.00
      172.2560000000         0.0617669000
       25.9109000000         0.3587940000
        5.5333500000         0.7007130000
 s    2  1.00
        3.6649800000        -0.3958970000
        0.7705450000         1.2158400000
 p    2  1.00
        3.6649800000         0.2364600000
        0.7705450000         0.8606190000
 s    1  1.00
        0.1958570000         1.0000000000
 p    1  1.00
        0.1958570000         1.0000000000

  12 0
 s    2  1.00
        5.4471780000         0.1562850000
        0.8245470000         0.9046910000
 s    1  1.00
        0.1831920000         1.0000000000

  13 0
 s    2  1.00
        5.4471780000         0.1562850000
        0.8245470000         0.9046910000
 s    1  1.00
        0.1831920000         1.0000000000

[MO]
 Sym= A
 Ene=        -0.0000000000
 Spin= Alpha
 Occup= -0.0000
  1       0.161915061411
  2       1.245098426463
  3       0.129412868061
  4       0.134592169530
  5       0.177883625314
  6      -4.869928180864
  7       0.565976401325
  8      -0.237143348565
  9      -0.782799941703
 10      -0.047607491805
 11      -0.315647727169
 12      -0.307011855389
 13      -0.004312452919
 14      -0.075922321243
 15       1.267842665213
 16       0.882033911666
 17      -0.011872372650
 18       0.657299983961
 19      -0.020923609478
 20      -0.060785141104
 21      -0.222131597486
 22      -0.208339578974
 23       0.011584490507
 24      -0.336436582476
 25      -0.063130071588
 26      -0.441003760934
 27       0.054107970829
 28       0.060512592250
 29       0.032166035225
 30       1.735968274044
 31       0.376115974988
 32      -0.058727668984
 33       0.157965074586
 34       0.006182335407
 35      -0.516990557689
 36      -0.048482067703
 37      -1.006590744322
 38      -0.028201751604
 39      -0.117437448386
 40      -0.110271902639
 41       0.049114780395
 42       0.069236153923
 43       0.493873677799
 44      -0.059700220483
 45      -0.630041514969
 46       0.125073580320
 47      -0.239005098297
 48       0.513753492810
 49      -0.101230422185
 50      -0.540379018656
 51      -0.045816826023
 52      -0.018568886181
 53      -0.054785742027
 54       2.796470300991
 55      -0.128946052680
 56       0.354545954982
 57      -1.404738502226
 58      -0.143566690151
 59      -0.208988019889
 60       0.323237241908
 61       0.581750317082
 Sym= A
 Ene=        -0.0000000000
 Spin= Alpha
 Occup= -0.0000
  1      -0.056869789188
  2      -0.107238772916
  3       0.056854856977
  4       0.100049578882
  5      -0.125411753148
  6       1.250616177906
  7      -0.047266396102
  8      -0.231129388279
  9       1.219108215435
 10      -0.016128278084
 11      -0.054047506603
 12       0.024329949672
 13       0.057485819671
 14       0.029671143159
 15       0.283559080187
 16       0.101515049213
 17       0.115811002166
 18      -0.208727531871
 19      -0.082461604637
 20       0.187391399200
 21       0.177967924234
 22       0.209337741292
 23      -0.186260262508
 24      -0.149204451663
 25      -0.023894032437
 26      -1.250379491735
 27      -0.275274901090
 28       0.077464256961
 29      -0.014642737053
 30       2.730507267524
 31       0.747817813598
 32      -0.287536473793
 33       0.003556893582
 34       0.104986588000
 35      -0.930508607007
 36       0.218433385213
 37      -1.384127206315
 38       0.010395680640
 39       0.008615266823
 40      -0.026306850452
 41       0.019071779094
 42       0.033285259233
 43      -0.188851663176
 44      -0.201361077036
 45       0.093710731221
 46      -0.197291262669
 47      -0.095700536029
 48      -0.178694258127
 49       0.066246130015
 50       0.573643970294
 51       0.302789827947
 52      -0.051342361396
 53       0.047892995261
 54      -2.373433623306
 55      -0.163078455278
 56       0.151491527902
 57       0.745049849382
 58       0.118813363567
 59       0.572176584402
 60      -0.092033557524
 61       0.030430599691
 Sym= A
 Ene=        -0.0000000000
 Spin= Alpha
 Occup= -0.0000
  1       0.038315296058
  2       0.088995873740
  3       0.081233539502
  4       0.123752848002
  5       0.106974794946
  6      -0.756787964942
  7       0.662361670922
  8      -0.415551909609
  9       1.151236445126
 10      -0.023199606344
 11      -0.648236375023
 12      -0.469823179249
 13      -0.042858293688
 14      -0.055078806566
 15       1.454893253929
 16       1.071738507803
 17       0.180708281899
 18       0.346283307484
 19      -0.126573489877
 20       0.528600454613
 21       0.215202298852
 22      -0.222823084017
 23      -0.061553506201
 24       0.763636039596
 25       0.080626366656
 26       0.553754933817
 27       0.049061994900
 28       0.158392210701
 29      -0.099696133305
 30      -2.165590541430
 31      -0.043646850096
 32      -0.133731050394
 33       0.159611237347
 34      -0.060662228925
 35       0.889132384465
 36       0.154274399364
 37       0.484314588123
 38      -0.018579208717
 39      -0.292595383168
 40       0.046452073255
 41      -0.017257267960
 42      -0.042553645668
 43       0.763244840252
 44       0.180471414771
 45      -0.056967890031
 46      -0.192713609581
 47      -0.510108196951
 48       0.546140701247
 49       0.023508324467
 50       0.639947868219
 51       0.264659410414
 52       0.074726331119
 53      -0.025960034904
 54      -1.732347505992
 55      -0.566870736477
 56       0.238890765532
 57       0.253220781559
 58       0.084735802676
 59       0.580084008638
 60       0.191222653191
 61      -0.010249529563
 Sym= A
 Ene=        -0.0000000000
 Spin= Alpha
 Occup= -0.0000
  1      -0.018581037508
  2      -0.046048943219
  3       0.029710156878
  4       0.248821390811
  5       0.360939597278
  6       0.074498804534
  7       0.083067571215
  8      -0.332141714799
  9      -1.185318556950
 10       0.001741762211
 11       0.027870259148
 12      -0.190220803190
 13       0.019534631008
 14      -0.117809437851
 15      -0.240371816438
 16      -0.028526188109
 17       0.162830819358
 18       0.178371247099
 19       0.025448415221
 20      -0.380972970862
 21      -0.288987112565
 22      -0.209955154327
 23      -0.136604646119
 24       1.213828317143
 25       0.097153893513
 26      -0.387392497994
 27      -0.316298356209
 28       0.100997697805
 29      -0.089277202619
 30      -0.575890816897
 31       0.666220732587
 32      -0.643308870687
 33       0.164790320703
 34       0.032170580380
 35       0.037857038735
 36       0.139174695642
 37      -0.196032468076
 38      -0.018964490637
 39      -0.055882296629
 40      -0.027010600111
 41       0.159008885930
 42       0.053084300488
 43       0.356510731712
 44       0.087917844194
 45       0.083910100808
 46      -0.119502139058
 47      -0.083046715245
 48      -0.152687654359
 49      -0.045961048095
 50      -0.514678615161
 51      -0.211920511946
 52      -0.103155866679
 53      -0.035331202266
 54       1.892930501263
 55       0.136223403154
 56       0.192289081758
 57      -0.085743760773
 58      -0.119258656052
 59      -0.371620395809
 60       0.148707898489
 61      -0.796034283646
 Sym= A
 Ene=        -0.0000000000
 Spin= Alpha
 Occup= -0.0000
  1       0.004280005939
  2       0.104477692844
  3       0.061973133383
  4      -0.001378569585
  5      -0.271683862488
  6      -0.123944723020
  7       0.238194808202
  8       0.111703943887
  9       0.708696086925
 10      -0.003886741538
 11      -0.029525963403
 12      -0.116264524020
 13      -0.119641459577
 14       0.119288021112
 15       0.286121655094
 16       0.282494039226
 17      -0.043677351162
 18      -0.118534102858
 19       0.443541787948
 20      -0.174030314482
 21       0.247994743624
 22       0.021371240567
 23      -0.076568648688
 24       0.565303925167
 25       0.008036820292
 26      -0.078352030970
 27       0.125457345323
 28      -0.322977250492
 29      -0.013701034489
 30      -0.180236414487
 31      -0.270898921564
 32      -0.133578998097
 33       0.222708808856
 34      -0.031518002458
 35       0.044678854287
 36      -0.121333973593
 37       0.160685367253
 38       0.017319346608
 39       0.032079319942
 40       0.018024627929
 41      -0.008853910795
 42       0.080573676604
 43      -0.260861869768
 44      -0.125236714920
 45      -0.067664587777
 46       0.021380390142
 47       0.124182795797
 48       0.088976369124
 49       0.041093835833
 50      -0.552774619005
 51       0.467064518895
 52      -0.089728710954
 53      -0.368722665240
 54       0.457737149285
 55      -0.611088311610
 56      -0.715252632111
 57       0.301847555473
 58      -0.141497592264
 59      -0.670338515605
 60      -0.017214789401
 61       0.061145868903
 Sym= A
 Ene=        -0.0000000000
 Spin= Alpha
 Occup= -0.0000
  1      -0.060841694638
  2       0.324057828218
  3      -0.046994794896
  4       0.400402700543
  5       0.015226927547
  6       0.086808478404
  7       0.277293843976
  8      -0.757354087097
  9       0.538545688915
 10      -0.017777882834
 11       0.105542807304
 12      -0.231228543671
 13       0.044547932208
 14       0.068406629868
 15       0.095231766534
 16       0.277423864057
 17       0.081771492030
 18      -0.133420737305
 19       0.406324689038
 20      -0.077598893068
 21      -0.346077228794
 22       0.696207078949
 23       0.105827365276
 24      -0.326843402567
 25      -0.028443127582
 26      -0.055418031171
 27       0.068760804173
 28       0.025359979499
 29       0.101469947869
 30       0.268667138991
 31      -0.604896112957
 32      -0.098999206554
 33       0.004127264970
 34      -0.006552658036
 35       0.003978398841
 36      -0.092539520107
 37       0.428039202299
 38       0.032011617768
 39      -0.046386266229
 40      -0.188464672138
 41       0.168991379648
 42       0.002210352025
 43      -0.158977348665
 44      -0.061425875658
 45      -0.271121887072
 46       0.092860340779
 47      -0.192593305691
 48       0.265052151390
 49       0.112851446722
 50      -0.167768934883
 51      -0.439804894384
 52      -0.065043057123
 53       0.013541966765
 54      -1.252500631135
 55       0.256814150660
 56       0.456589444855
 57       0.170473359840
 58       0.240217326883
 59       0.567454424319
 60      -0.053108246577
 61      -0.313428910629
 Sym= A
 Ene=        -0.0000000000
 Spin= Alpha
 Occup= -0.0000
  1       0.000781157343
  2      -0.483907872203
  3       0.148341457864
  4       0.022948205800
  5       0.449887890669
  6       0.288263896943
  7       0.151427731341
  8      -0.207813911404
  9       0.658482831734
 10      -0.038507749143
 11      -0.140953594480
 12      -0.149757531821
 13       0.079514893749
 14      -0.200560588371
 15       0.636355508721
 16       0.600079139274
 17       0.079539391282
 18       0.259336331520
 19      -0.141683978886
 20      -0.076716222885
 21      -0.105909167857
 22      -0.140805373215
 23       0.072245920697
 24      -0.231348162433
 25      -0.029931925492
 26      -0.057013275784
 27       0.168672808021
 28      -0.207260541718
 29       0.140045070727
 30       0.481899911824
 31      -0.315717924110
 32       0.125525885391
 33      -0.006918794555
 34      -0.028550566728
 35      -0.072915123331
 36      -0.263554616396
 37       0.157465544210
 38      -0.005092760488
 39       0.130077464100
 40       0.062319706636
 41       0.034816310771
 42      -0.157561912816
 43      -0.179196970566
 44      -0.286676043501
 45      -0.223889033991
 46       0.141800380551
 47       0.127576651053
 48      -0.384553387240
 49       0.017757787206
 50      -0.377598757973
 51       0.076695862548
 52      -0.060408534240
 53       0.540709637939
 54       0.245460085253
 55      -0.282296032241
 56      -0.299588155481
 57       0.323384294984
 58      -0.168901273702
 59      -0.394820170700
 60      -0.103104826032
 61       0.261209981097
 Sym= A
 Ene=        -0.0000000000
 Spin= Alpha
 Occup= -0.0000
  1      -0.059833949693
  2      -0.391902066192
  3       0.063670208139
  4       0.034190094177
  5       0.223827750933
  6       1.164502397653
  7       0.951446641540
  8      -0.062973683114
  9      -0.444697765115
 10       0.043520568620
 11      -0.766897928503
 12      -0.109301664188
 13      -0.039260515453
 14      -0.197054684290
 15       0.744727427449
 16       0.066801949657
 17       0.163511736046
 18       0.462430956341
 19       0.113257878371
 20      -0.425279440633
 21       0.005973475652
 22      -0.258902950086
 23       0.233763664487
 24      -0.865730169520
 25      -0.047014235268
 26       0.100443367560
 27       0.013212989302
 28       0.027435510068
 29       0.010479705278
 30       0.629355110017
 31       0.089219133530
 32       0.287403480052
 33      -0.091668283825
 34      -0.017462433068
 35      -0.124540071374
 36      -0.061241946325
 37      -0.199251439850
 38       0.006893775716
 39       0.162372351423
 40      -0.113093044104
 41      -0.033348324038
 42      -0.074199013631
 43      -0.370550062367
 44       0.031189838506
 45       0.268719001641
 46       0.185723311353
 47      -0.486287607375
 48       0.426643485950
 49      -0.011194036317
 50      -0.125041325439
 51       0.106409124920
 52      -0.078626378214
 53      -0.332305693761
 54       0.727370899253
 55      -0.292915534869
 56      -0.168038785369
 57       0.699602955848
 58      -0.112320498545
 59      -0.370264256324
 60      -0.324465225505
 61      -0.871577464731
 Sym= A
 Ene=        -0.0000000000
 Spin= Alpha
 Occup= -0.0000
  1       0.014486210640
  2      -0.241881769942
  3       0.130636719852
  4      -0.119131110291
  5      -0.266739160012
  6       0.096116619424
  7       0.299139384123
  8       0.260855992136
  9       0.803890841481
 10      -0.006523841918
 11      -0.245058575645
 12      -0.011231897896
 13      -0.132026743340
 14       0.038209157311
 15       0.658006643280
 16       0.309392447702
 17       0.003639135230
 18       0.055732387666
 19       0.123289110501
 20      -0.078701649489
 21      -0.201646275152
 22       0.194825379895
 23      -0.301049317452
 24       0.103845937198
 25       0.008096839839
 26       0.062431930727
 27      -0.152369445402
 28       0.490586010577
 29       0.039831875628
 30      -0.253470832141
 31       0.673852215843
 32      -0.025149655208
 33      -0.109832252806
 34      -0.125774273312
 35       0.389198217408
 36       0.054761776810
 37      -0.431640201182
 38      -0.027104246317
 39       0.013482760907
 40       0.133984093819
 41      -0.136760081661
 42      -0.068836543607
 43       0.324309564241
 44       0.091910460640
 45       0.297448041224
 46      -0.235545910988
 47       0.283516758066
 48      -0.191145509252
 49       0.028466423379
 50      -0.669234036240
 51      -0.286432624898
 52       0.102439054791
 53      -0.129068879811
 54       0.430395616245
 55       0.005433306044
 56      -0.440140934148
 57       0.205535295159
 58       0.028472131571
 59      -0.454430053894
 60      -0.160642448599
 61       0.141386462869
 Sym= A
 Ene=        -0.0000000000
 Spin= Alpha
 Occup= -0.0000
  1       0.031347801807
  2      -0.419556162783
  3       0.179418714812
  4       0.411825688264
  5      -0.247537389582
  6       0.067893792290
  7      -0.831364895775
  8      -0.311218280133
  9       0.342020923491
 10       0.019450084418
 11       0.076714639181
 12       0.135122864038
 13      -0.081426280774
 14      -0.203213274599
 15      -0.550583709168
 16      -0.111719481340
 17       0.061534155776
 18       0.033255117883
 19      -0.010007606064
 20      -0.258359298457
 21      -0.234159488377
 22      -0.078066536519
 23      -0.013408583481
 24       0.025767600059
 25      -0.003229165289
 26       0.168251815308
 27       0.025031184552
 28      -0.269480824954
 29      -0.063593784124
 30      -0.165173717989
 31       0.420849782551
 32       0.329662094363
 33      -0.088485922919
 34      -0.137324996983
 35       0.044122810873
 36      -0.001336651375
 37      -0.289695046364
 38       0.001513645427
 39      -0.109988343549
 40       0.062868078087
 41       0.290745213107
 42      -0.169071980578
 43       0.324715371531
 44       0.273674617249
 45      -0.138608326201
 46       0.004511215695
 47      -0.355269322201
 48       0.570107787075
 49       0.000503793995
 50      -0.257671537045
 51       0.156114706809
 52       0.120155192341
 53      -0.136916332453
 54       0.164579038178
 55       0.031737327738
 56       0.269008960261
 57       0.315389125565
 58       0.247591663682
 59      -0.017310385382
 60      -0.101917266634
 61       0.913403181667
 Sym= A
 Ene=        -0.0000000000
 Spin= Alpha
 Occup= -0.0000
  1       0.004306605002
  2       0.264433194023
  3      -0.241955510190
  4       0.449524789065
  5       0.255042741525
  6      -0.230976793778
  7       0.260142753516
  8      -0.445807759816
  9      -0.228423538556
 10       0.016730180437
 11       0.060832146195
 12       0.194778542974
 13      -0.259048545692
 14       0.162841848017
 15      -0.085586531881
 16      -0.245765964193
 17       0.086079787894
 18      -0.183753298208
 19       0.055489668378
 20       0.080884323056
 21      -0.125803181482
 22      -0.002586571397
 23       0.120647093872
 24      -0.225278808131
 25      -0.006171907798
 26       0.151722162702
 27      -0.060335947216
 28       0.439517678333
 29       0.077736899771
 30      -0.316346407095
 31       0.013551411733
 32      -0.244144907721
 33      -0.064175913168
 34      -0.172624840972
 35       0.337924494365
 36       0.018281608592
 37       0.103637416113
 38       0.008271838300
 39      -0.180697991189
 40      -0.019650369933
 41       0.191056944824
 42       0.247922307784
 43       0.373954024604
 44       0.047946590806
 45      -0.107589640357
 46      -0.189665736296
 47       0.375506528127
 48      -0.171742582237
 49      -0.002853969568
 50       0.000827934180
 51       0.522321672358
 52      -0.054557518330
 53       0.185752129232
 54       0.114336793930
 55      -0.654246582722
 56       0.107250258770
 57      -0.165558293747
 58      -0.091214040840
 59       0.031178390360
 60       0.104224284069
 61      -0.114933539294
 Sym= A
 Ene=        -0.0000000000
 Spin= Alpha
 Occup= -0.0000
  1       0.022199537013
  2      -0.092644412351
  3      -0.117003463085
  4       0.290414919012
  5      -0.332714893280
  6       0.156883222016
  7       0.424273227262
  8      -0.399742119315
  9       0.143521948046
 10      -0.040242682831
 11       0.137325227783
 12      -0.205072208949
 13       0.096516359664
 14       0.036291155330
 15       0.369362519030
 16       0.066484693484
 17       0.104345721778
 18       0.025360083755
 19      -0.267338813200
 20      -0.272784279615
 21      -0.117973172680
 22      -0.660032571465
 23      -0.056483719936
 24      -0.260687446632
 25      -0.009516841917
 26      -0.117613539229
 27       0.332369378825
 28       0.044958417194
 29       0.075144852613
 30       0.192012313163
 31      -0.436283614571
 32       0.159206217809
 33      -0.005431573424
 34       0.042337028070
 35       0.037210530912
 36      -0.367627658963
 37       0.481138726677
 38      -0.002812808149
 39      -0.144736597666
 40       0.068564482012
 41       0.221967089857
 42       0.059957101012
 43       0.284009972866
 44      -0.339352194243
 45      -0.247928509761
 46      -0.195289499933
 47       0.315410463850
 48      -0.865502303805
 49      -0.086994348958
 50       0.060451951826
 51       0.042884423152
 52      -0.125879725950
 53      -0.433493490449
 54       0.723423831005
 55      -0.257503769896
 56       0.572950985434
 57       0.632964502167
 58       0.068778118434
 59      -0.077604652754
 60      -0.263557210604
 61       0.049822016872
 Sym= A
 Ene=        -0.0000000000
 Spin= Alpha
 Occup= -0.0000
  1       0.046848195372
  2      -0.249417350690
  3      -0.050317514233
  4       0.163278830663
  5      -0.002962563766
  6      -0.220569806397
  7      -0.117873097197
  8      -0.279873837500
  9      -0.547094929130
 10       0.012108834006
 11      -0.206911028135
 12      -0.129504896345
 13      -0.021740283033
 14      -0.336003799185
 15       0.214882014909
 16      -0.000117175626
 17       0.263527639196
 18       0.293775362597
 19       0.045823555498
 20       0.332577711071
 21      -0.130182081020
 22       1.029188183911
 23      -0.189653707209
 24      -0.013001334782
 25       0.002799211544
 26      -0.257452999939
 27       0.085996172344
 28       0.274181661922
 29       0.021373046338
 30       0.692098305471
 31      -0.892530189510
 32      -0.305199248654
 33      -0.032815215036
 34       0.142590257590
 35      -0.287448519228
 36       0.392841428562
 37       0.099223165270
 38      -0.019375623117
 39       0.319815153791
 40       0.193263681573
 41      -0.019663270810
 42      -0.200285817013
 43      -0.517874281092
 44      -0.394257458713
 45      -0.315114762871
 46       0.520960991543
 47       0.112861655025
 48      -0.584619864298
 49       0.000734595706
 50       0.278961668619
 51       0.053029397592
 52       0.212051236754
 53      -0.134245540653
 54      -0.528861671720
 55       0.283354703183
 56      -0.535960845291
 57      -0.560474018716
 58      -0.042586119633
 59      -0.223464759537
 60       0.030069520510
 61      -0.027035537863
 Sym= A
 Ene=        -0.0000000000
 Spin= Alpha
 Occup= -0.0000
  1       0.097359246528
  2      -0.217998153484
  3      -0.012161169806
  4       0.169027633273
  5       0.058060777454
  6      -0.610686731563
  7       0.699819656479
  8      -0.089818237105
  9       0.263443354212
 10       0.000496421603
 11      -0.753633542513
 12       0.511860700309
 13      -0.065988204240
 14       0.116870818529
 15       1.422499449742
 16      -0.052380627297
 17       0.118286274038
 18       0.238445719493
 19       0.114819389061
 20      -0.139610395258
 21      -0.234035318246
 22       0.174693701549
 23       0.263791695467
 24       0.200594876611
 25       0.053434262531
 26      -0.076704446194
 27       0.051932209824
 28      -0.186081446527
 29      -0.092905102944
 30      -0.543741782435
 31      -0.189536298457
 32      -0.012737171650
 33       0.226235552501
 34       0.125588545123
 35       0.177886337251
 36       0.198545717724
 37       0.069278867297
 38      -0.012141224457
 39      -0.028725898063
 40      -0.319341015572
 41      -0.043328844047
 42       0.168948741802
 43       0.169418510853
 44       0.154116835414
 45      -0.027269959662
 46      -0.269786681564
 47       0.067004597176
 48      -0.287360176084
 49      -0.027486919303
 50       0.094895549022
 51      -0.245036152504
 52      -0.061362075373
 53      -0.082028731105
 54      -0.048289166458
 55      -0.000329309490
 56       0.233449578536
 57      -0.157661475956
 58      -0.059018238067
 59       0.214684507337
 60      -0.024059957343
 61       0.098533032214
 Sym= A
 Ene=        -0.0000000000
 Spin= Alpha
 Occup= -0.0000
  1      -0.003902467439
  2       0.074129999513
  3      -0.243892615599
  4       0.136546561861
  5      -0.383136015951
  6       0.101996616386
  7       0.049465056019
  8      -0.409107192268
  9       0.577658057619
 10       0.000660720580
 11       0.050637625378
 12       0.151023928860
 13       0.257142853591
 14       0.006267195864
 15      -0.036757507847
 16      -0.213064506017
 17       0.044379771491
 18      -0.242187702839
 19      -0.295096429142
 20       0.366964141264
 21       0.055922154516
 22       0.047114332780
 23      -0.039721944580
 24      -0.152493014816
 25       0.004490569847
 26      -0.230368443001
 27       0.265447517388
 28       0.111239140027
 29      -0.101121102565
 30       0.036316577423
 31      -0.137524208291
 32       0.100145078507
 33       0.026389055096
 34      -0.265719536836
 35       0.373889033253
 36      -0.153118573694
 37       0.181693565808
 38      -0.059703182328
 39       0.302271997384
 40      -0.164299036795
 41       0.107059541163
 42       0.222968008122
 43      -0.072010955234
 44       0.269883111644
 45      -0.276054700556
 46      -0.333770746623
 47      -0.453145242129
 48       0.379626098049
 49      -0.030963052275
 50      -0.270061392514
 51       0.003997776654
 52       0.105231585506
 53       0.228543312872
 54       0.291861433095
 55      -0.053956142261
 56      -0.639638986991
 57      -0.094657952396
 58      -0.230080851425
 59      -0.646547777311
 60       0.257351185332
 61      -0.378483919281
 Sym= A
 Ene=        -0.0000000000
 Spin= Alpha
 Occup= -0.0000
  1      -0.005571498975
  2       0.210662001088
  3       0.109754877774
  4      -0.077341253198
  5       0.077366392716
  6      -0.023044518992
  7      -0.146210989434
  8      -0.328754780633
  9       0.260851483024
 10      -0.006448307127
 11       0.085252116619
 12       0.239369359720
 13      -0.270409152659
 14      -0.025119503017
 15      -0.137113148797
 16      -0.115799370494
 17       0.208834919140
 18       0.077388428614
 19      -0.156631767703
 20      -0.347587736774
 21      -0.171003478357
 22      -0.465884239010
 23      -0.412727231051
 24       0.558892653235
 25       0.002676106977
 26      -0.233225535021
 27       0.539477406946
 28       0.279261308974
 29       0.105214128082
 30       0.201393869254
 31      -0.733335058769
 32      -0.426076283599
 33      -0.061630824398
 34       0.026805436110
 35      -0.112383649594
 36       0.228429637065
 37      -0.106289676947
 38       0.004759317331
 39       0.086969907226
 40       0.018784956776
 41      -0.059376096833
 42      -0.085507863260
 43      -0.369734812909
 44       0.117737764505
 45      -0.074370263571
 46       0.193406077521
 47      -0.128813995622
 48       0.379008412075
 49      -0.014643533405
 50      -0.177507924636
 51       0.007330547675
 52      -0.194577334224
 53      -0.032840174342
 54       0.605085298246
 55      -0.056554025286
 56       0.519138152700
 57       0.671837670116
 58       0.345052575112
 59      -0.310543604633