[Molden Format]
[Title]
CLPOs

[Atoms] AU
C    1   6         -0.0369689910        -1.3260160008         0.1879343306 
O    2   8         -2.0818913132        -1.4276124730        -1.2792930922 
H    3   1          1.3487830902        -1.3555256683         3.9992908512 
H    4   1         -1.9800107768        -0.8680917159         3.6801690594 
H    5   1          1.8903553169         4.6480252152        -2.0586542511 
C    6   6          2.2776307502         2.6737149746        -1.5577530263 
H    7   1          2.5127240439         1.5620091258        -3.2884670847 
H    8   1          4.0029367659         2.5912816182        -0.4450564652 
O    9   8          0.2156425298         1.7556169122        -0.0997247005 
H   10   1         -1.8167024746         0.6004072966        -1.3923838369 
C   11   6         -0.3422672309        -1.8876092181         2.9527713056 
H   12   1         -0.6682331440        -3.9136662011         3.1829623000 
H   13   1          1.7250112516        -2.0414893645        -0.6397930137 
[GTO]
  1 0 
s   3 1.0  
      172.2560000000         0.0617669000 
       25.9109000000         0.3587940000 
        5.5333500000         0.7007130000 
s   2 1.0  
        3.6649800000        -0.3958970000 
        0.7705450000         1.2158400000 
p   2 1.0  
        3.6649800000         0.2364600000 
        0.7705450000         0.8606190000 
s   1 1.0  
        0.1958570000         1.0000000000 
p   1 1.0  
        0.1958570000         1.0000000000 

  2 0 
s   3 1.0  
      322.0370000000         0.0592394000 
       48.4308000000         0.3515000000 
       10.4206000000         0.7076580000 
s   2 1.0  
        7.4029400000        -0.4044530000 
        1.5762000000         1.2215600000 
p   2 1.0  
        7.4029400000         0.2445860000 
        1.5762000000         0.8539550000 
s   1 1.0  
        0.3736840000         1.0000000000 
p   1 1.0  
        0.3736840000         1.0000000000 

  3 0 
s   2 1.0  
        5.4471780000         0.1562850000 
        0.8245470000         0.9046910000 
s   1 1.0  
        0.1831920000         1.0000000000 

  4 0 
s   2 1.0  
        5.4471780000         0.1562850000 
        0.8245470000         0.9046910000 
s   1 1.0  
        0.1831920000         1.0000000000 

  5 0 
s   2 1.0  
        5.4471780000         0.1562850000 
        0.8245470000         0.9046910000 
s   1 1.0  
        0.1831920000         1.0000000000 

  6 0 
s   3 1.0  
      172.2560000000         0.0617669000 
       25.9109000000         0.3587940000 
        5.5333500000         0.7007130000 
s   2 1.0  
        3.6649800000        -0.3958970000 
        0.7705450000         1.2158400000 
p   2 1.0  
        3.6649800000         0.2364600000 
        0.7705450000         0.8606190000 
s   1 1.0  
        0.1958570000         1.0000000000 
p   1 1.0  
        0.1958570000         1.0000000000 

  7 0 
s   2 1.0  
        5.4471780000         0.1562850000 
        0.8245470000         0.9046910000 
s   1 1.0  
        0.1831920000         1.0000000000 

  8 0 
s   2 1.0  
        5.4471780000         0.1562850000 
        0.8245470000         0.9046910000 
s   1 1.0  
        0.1831920000         1.0000000000 

  9 0 
s   3 1.0  
      322.0370000000         0.0592394000 
       48.4308000000         0.3515000000 
       10.4206000000         0.7076580000 
s   2 1.0  
        7.4029400000        -0.4044530000 
        1.5762000000         1.2215600000 
p   2 1.0  
        7.4029400000         0.2445860000 
        1.5762000000         0.8539550000 
s   1 1.0  
        0.3736840000         1.0000000000 
p   1 1.0  
        0.3736840000         1.0000000000 

 10 0 
s   2 1.0  
        5.4471780000         0.1562850000 
        0.8245470000         0.9046910000 
s   1 1.0  
        0.1831920000         1.0000000000 

 11 0 
s   3 1.0  
      172.2560000000         0.0617669000 
       25.9109000000         0.3587940000 
        5.5333500000         0.7007130000 
s   2 1.0  
        3.6649800000        -0.3958970000 
        0.7705450000         1.2158400000 
p   2 1.0  
        3.6649800000         0.2364600000 
        0.7705450000         0.8606190000 
s   1 1.0  
        0.1958570000         1.0000000000 
p   1 1.0  
        0.1958570000         1.0000000000 

 12 0 
s   2 1.0  
        5.4471780000         0.1562850000 
        0.8245470000         0.9046910000 
s   1 1.0  
        0.1831920000         1.0000000000 

 13 0 
s   2 1.0  
        5.4471780000         0.1562850000 
        0.8245470000         0.9046910000 
s   1 1.0  
        0.1831920000         1.0000000000 

[5D]
[9G]
[MO]
 Sym=     1a
 Ene=  0.00000000000000E+00
 Spin= Beta
 Occup= 0.000815
  1       0.058419905929
  2       1.779191349268
  3       0.399672616543
  4      -0.292093686852
  5       0.102600179897
  6      -3.886305249224
  7      -0.870362138094
  8       0.593146935595
  9      -0.683283431501
 10      -0.020359991768
 11       0.031516455435
 12       0.047534434414
 13      -0.022623632387
 14       0.022241410489
 15       0.218981737013
 16       0.137335180283
 17      -0.116644698001
 18       0.114643878480
 19      -0.081116923636
 20       0.000204223291
 21      -0.018690930677
 22       0.095706103094
 23      -0.006900809700
 24       0.028245170908
 25      -0.010571933524
 26      -0.037706274240
 27      -0.001868259326
 28       0.014307551311
 29      -0.008716176914
 30       0.151216979636
 31      -0.064598968141
 32      -0.072796393136
 33       0.053767934530
 34      -0.008409485953
 35      -0.068145080353
 36      -0.012349609812
 37      -0.008534612876
 38      -0.026365136982
 39       0.011251706495
 40       0.011946644987
 41      -0.032554226511
 42       0.008338546271
 43       0.202299286315
 44       0.035665252532
 45      -0.297639191942
 46       0.118370863340
 47      -0.000101025651
 48       0.054458990256
 49      -0.056304461049
 50      -0.065205520140
 51       0.049189427884
 52       0.008647844063
 53      -0.138316148298
 54       1.403366949777
 55       0.348042954362
 56       0.068542876323
 57      -0.870076851883
 58      -0.064210759584
 59       0.049530264303
 60       0.332069810969
 61       1.052575065363
 Sym=     1a
 Ene=  1.00000000000000E+00
 Spin= Beta
 Occup= 1.990213
  1      -0.054939349976
  2       0.127859349535
  3       0.283064755685
  4      -0.121779565928
  5      -0.153866322625
  6       0.340550941350
  7       0.173231914556
  8      -0.089205306486
  9      -0.057335294660
 10       0.005413909294
 11      -0.006291648121
 12      -0.031158327342
 13       0.014401140413
 14       0.006080883585
 15      -0.024335679854
 16      -0.039043884633
 17       0.019004036030
 18      -0.005739094511
 19      -0.009530874924
 20      -0.010414270784
 21       0.001445589152
 22       0.000547115324
 23      -0.000658015074
 24       0.010611392643
 25       0.003953710009
 26      -0.010155936164
 27       0.006417019933
 28       0.026725275205
 29      -0.009831677559
 30      -0.010863791561
 31       0.002460121045
 32      -0.003960018544
 33       0.001862317359
 34      -0.012682388664
 35      -0.000877314900
 36      -0.005258466059
 37      -0.002566898845
 38       0.003316044234
 39      -0.004480486614
 40      -0.011836199628
 41       0.019985766766
 42       0.001948440501
 43      -0.015380620779
 44      -0.010900386820
 45       0.025499166518
 46      -0.002701025008
 47      -0.008226622134
 48      -0.025736745302
 49       0.012753323788
 50      -0.013094617116
 51      -0.041937223263
 52       0.011333133191
 53       0.043316355757
 54      -0.086389776118
 55      -0.016113941221
 56      -0.006460059319
 57       0.091859957852
 58      -0.005076728533
 59      -0.003138497425
 60       0.314768427300
 61       0.234968228989
 Sym=     1a
 Ene=  2.00000000000000E+00
 Spin= Beta
 Occup= 0.039276
  1      -0.111598258835
  2       0.178294713121
  3       0.455315912764
  4      -0.193129952297
  5      -0.236725036735
  6       0.831546698916
  7       0.590246195039
  8      -0.233059897329
  9      -0.247336492039
 10       0.002794804150
 11       0.000776468516
 12      -0.044450661098
 13       0.022997109325
 14       0.036621708982
 15      -0.001773665280
 16      -0.062482215943
 17       0.031938235658
 18       0.038680628368
 19       0.009775640435
 20       0.006052560786
 21       0.006830705034
 22      -0.007754703182
 23      -0.000702900187
 24      -0.003457054301
 25       0.001693411598
 26      -0.003836243932
 27       0.011181432992
 28      -0.003187657073
 29       0.000242531003
 30       0.000602544571
 31       0.001268309681
 32       0.003130842858
 33      -0.004899952112
 34       0.011110037305
 35       0.000851267010
 36       0.004569486154
 37       0.001610179334
 38       0.005127989422
 39      -0.007305460274
 40      -0.029177953835
 41       0.023622421275
 42       0.013381953918
 43      -0.026058465016
 44      -0.029740505587
 45       0.039867675324
 46       0.009699051110
 47       0.003201108341
 48       0.000977050804
 49       0.007220454968
 50       0.003089687453
 51      -0.057399439442
 52       0.025617952424
 53       0.007537247503
 54      -0.058590666192
 55      -0.075367891533
 56       0.022572155291
 57       0.063142906571
 58       0.004388881154
 59       0.003792616654
 60      -0.811527931387
 61      -0.794899465433
 Sym=     1a
 Ene=  3.00000000000000E+00
 Spin= Beta
 Occup= 1.999108
  1      -1.002609843871
  2      -0.069121441273
  3       0.003515924123
  4      -0.008943564227
  5       0.004691958177
  6       0.076336924893
  7       0.007580083803
  8       0.002292881332
  9       0.003584017945
 10      -0.002907318014
 11       0.001331061333
 12       0.009971685763
 13       0.000362180985
 14       0.006695957096
 15       0.006982239136
 16       0.017467082948
 17      -0.000361806504
 18       0.012396291182
 19      -0.001244768557
 20      -0.001124688946
 21      -0.001544277020
 22      -0.001700898009
 23      -0.000739883959
 24      -0.001250832068
 25       0.000417975518
 26      -0.000182075436
 27       0.000046912001
 28       0.001638651133
 29      -0.000358330960
 30      -0.000458297378
 31      -0.000076912125
 32       0.003894991437
 33      -0.000628249361
 34      -0.000225896945
 35      -0.001090596569
 36      -0.000198128947
 37      -0.000401608717
 38       0.000251518048
 39      -0.001238514938
 40       0.000305326737
 41      -0.001157606210
 42      -0.000476404699
 43      -0.004149343795
 44       0.000554400479
 45      -0.003762298696
 46      -0.000097270709
 47       0.000829770528
 48       0.003172070208
 49      -0.004133254073
 50      -0.000352079787
 51      -0.000071790750
 52       0.002040434015
 53      -0.008397977594
 54       0.016471436586
 55       0.000774473627
 56       0.003690903998
 57      -0.023610691887
 58      -0.001845270063
 59      -0.001768490113
 60       0.005416876070
 61       0.012817837396
 Sym=     1a
 Ene=  4.00000000000000E+00
 Spin= Beta
 Occup= 0.009132
  1      -0.000993096100
  2      -0.453357936492
  3       0.592172167163
  4       0.223932594819
  5       0.675368937602
  6       0.566485086903
  7      -1.231072160117
  8      -0.153344031057
  9      -1.487540962216
 10       0.034329422651
 11      -0.141832682851
 12      -0.066770150414
 13       0.042958512884
 14      -0.016907303702
 15      -0.613739689639
 16      -0.146442634444
 17       0.152849452459
 18      -0.010098083982
 19      -0.065596919048
 20      -0.081505016801
 21       0.054951060068
 22       0.107906396470
 23       0.008250167998
 24       0.028081505664
 25      -0.004313499358
 26      -0.002140560813
 27      -0.002288417259
 28      -0.009323530509
 29      -0.004608260396
 30       0.028820385327
 31       0.004646605241
 32      -0.053458150211
 33      -0.001842923584
 34      -0.008070071692
 35      -0.071812387188
 36      -0.005168479150
 37       0.034634756953
 38      -0.001854297092
 39       0.007503207669
 40       0.014889473524
 41       0.002821532697
 42       0.033432431848
 43       0.011892195766
 44       0.056897705666
 45       0.060880837890
 46       0.092886701672
 47      -0.100982884448
 48      -0.380122846455
 49      -0.002266726259
 50       0.043769903010
 51       0.059461845266
 52       0.031566726395
 53      -0.040160211237
 54       0.441338259466
 55       0.502276481921
 56       0.136659096964
 57      -0.145018230096
 58       0.026417714310
 59       0.037107299935
 60       0.020112290243
 61      -0.019590020769
 Sym=     1a
 Ene=  5.00000000000000E+00
 Spin= Beta
 Occup= 0.001674
  1       0.032298703420
  2       0.821129479317
  3      -0.014861487792
  4       0.999159714001
  5      -0.115214752216
  6      -1.541574102918
  7       0.421209614887
  8      -1.816994905074
  9       0.248574032675
 10      -0.015878491611
 11       0.056613384958
 12       0.046518632693
 13       0.050787244704
 14       0.033069482372
 15       0.297823455856
 16       0.130136241058
 17       0.130297616534
 18       0.122990633804
 19      -0.026915363532
 20       0.006324821137
 21      -0.092783966472
 22      -0.108042116824
 23       0.024758418993
 24       0.096749946864
 25      -0.022156546836
 26      -0.041507512727
 27      -0.019463974815
 28      -0.002907460485
 29       0.011711197394
 30       0.228525707757
 31      -0.088918075405
 32      -0.258529877416
 33       0.133737752248
 34      -0.028526058907
 35       0.016477981541
 36      -0.028213507690
 37      -0.032199279367
 38      -0.041940017927
 39       0.084347329450
 40      -0.023065165507
 41      -0.113312483950
 42       0.026823389844
 43       0.478686115778
 44      -0.100427566257
 45      -0.400031521300
 46       0.136541457808
 47       0.090751701002
 48       0.410893228176
 49      -0.018802603752
 50      -0.053445320262
 51      -0.012518598786
 52       0.061785251003
 53      -0.005400560875
 54       0.227678717877
 55      -0.168776898721
 56       0.549013986054
 57      -0.057287822351
 58       0.044329379939
 59       0.072225686912
 60      -0.005097413158
 61      -0.098742102909
 Sym=     1a
 Ene=  6.00000000000000E+00
 Spin= Beta
 Occup= 0.003343
  1       0.032884272878
  2       0.439393234704
  3      -0.705360807148
  4      -0.020819498613
  5       0.662374522098
  6      -1.220963029890
  7       1.914768637751
  8      -0.088606315755
  9      -2.036338620668
 10      -0.018311355424
 11       0.057146062693
 12      -0.038328946325
 13      -0.003229836261
 14       0.115860501861
 15       0.285471645447
 16      -0.151241103847
 17      -0.025830393461
 18       0.400199823473
 19       0.030568954983
 20       0.167172061658
 21      -0.091590707705
 22      -0.006430657597
 23      -0.043228327923
 24      -0.104059510331
 25       0.012012899246
 26       0.033624108716
 27      -0.029482552616
 28       0.003195780814
 29       0.009735540553
 30       0.028607856296
 31       0.028600150274
 32       0.217824610506
 33      -0.030399613922
 34       0.017299384990
 35      -0.050971550034
 36       0.001153828380
 37      -0.001223232614
 38      -0.008676718095
 39       0.009005488266
 40      -0.027968171276
 41       0.003127844921
 42       0.035923552395
 43       0.086240854835
 44      -0.161078139594
 45      -0.070138045483
 46       0.202054880899
 47       0.028955288621
 48       0.143777590785
 49      -0.041804902868
 50       0.000762746223
 51      -0.041454552353
 52       0.049427443795
 53      -0.153404052791
 54       1.465308572804
 55      -0.379697710182
 56       0.286208128084
 57      -0.914215581683
 58      -0.025367357710
 59       0.073809883084
 60      -0.264269779766
 61      -0.873432133483
 Sym=     1a
 Ene=  7.00000000000000E+00
 Spin= Beta
 Occup= 1.996639
  1      -0.045082137523
  2       0.119226919815
  3      -0.248221515488
  4      -0.033042505218
  5      -0.171445394330
  6       0.146442361128
  7      -0.076422907477
  8      -0.023252995368
  9      -0.036874467626
 10      -0.051208081366
 11       0.119660310542
 12       0.254611959849
 13      -0.040628964213
 14       0.185699617470
 15       0.366458826245
 16       0.285719504380
 17      -0.019556860882
 18       0.201451771872
 19       0.001320407654
 20       0.002602720914
 21      -0.006098994635
 22      -0.006594497354
 23      -0.000617819018
 24      -0.002810898724
 25      -0.000734730983
 26       0.000578190026
 27      -0.001025138566
 28      -0.002581369902
 29       0.001125009961
 30       0.002747765276
 31      -0.005081934413
 32       0.001125571867
 33       0.000267309881
 34       0.000206470153
 35       0.007133043476
 36       0.002274385031
 37       0.000162844205
 38       0.000663620276
 39       0.001983013137
 40       0.002013774332
 41       0.010763520945
 42      -0.000235169179
 43       0.005761844224
 44      -0.006942311201
 45       0.013353768195
 46      -0.003436750628
 47      -0.021029541041
 48      -0.102154875405
 49       0.007651974870
 50      -0.006651250880
 51       0.026167662742
 52      -0.000218638372
 53       0.029270311038
 54      -0.048468375005
 55      -0.008946732196
 56      -0.000910464871
 57       0.054357260476
 58      -0.001157453125
 59       0.000503735306
 60      -0.022720560013
 61      -0.041171683533
 Sym=     1a
 Ene=  8.00000000000000E+00
 Spin= Beta
 Occup= 0.020226
  1      -0.111142108034
  2       0.241421412960
  3      -0.509696696631
  4      -0.047265917611
  5      -0.346627189619
  6       0.727300796147
  7      -0.552256167269
  8      -0.054197484174
  9      -0.388207931234
 10       0.111388737478
 11      -0.199306544905
 12      -0.359618429750
 13       0.052203123833
 14      -0.264984718092
 15      -0.699538602008
 16      -0.504132666708
 17       0.024385864439
 18      -0.360362499025
 19       0.003181796213
 20       0.002471406393
 21      -0.008193646633
 22      -0.004428129526
 23       0.000700053209
 24      -0.002463267398
 25       0.000295810845
 26       0.000864878881
 27       0.003762686905
 28      -0.004799095809
 29       0.001680826209
 30      -0.005069573591
 31       0.011812767074
 32       0.005536473285
 33       0.002202313702
 34      -0.004846326092
 35       0.002810641467
 36       0.005302041089
 37      -0.003587593368
 38       0.006785770496
 39      -0.013151045293
 40       0.023606273860
 41       0.034526532541
 42       0.005230205797
 43      -0.038796283414
 44       0.029719182983
 45       0.034139756186
 46       0.014794782653
 47      -0.021723361427
 48      -0.034894270746
 49       0.007246234042
 50      -0.014080113269
 51       0.078969856873
 52       0.004508860661
 53       0.033733467316
 54      -0.012754835572
 55       0.051775605209
 56       0.013789985582
 57       0.048385391171
 58      -0.005432629665
 59       0.002674672521
 60      -0.014335267706
 61      -0.037851565870
 Sym=     1a
 Ene=  9.00000000000000E+00
 Spin= Beta
 Occup= 1.982103
  1       0.018637008619
  2      -0.019142448450
  3      -0.024400072763
  4      -0.240534586960
  5       0.004725503325
  6      -0.128592082824
  7      -0.012162539290
  8      -0.197168121367
  9       0.013545947611
 10      -0.001315702927
 11      -0.001624986910
 12       0.011793206840
 13       0.015047587549
 14       0.006290936302
 15       0.001644763004
 16       0.021625009430
 17       0.020907818087
 18       0.013276680540
 19      -0.000481143169
 20      -0.000808712109
 21      -0.000892585299
 22      -0.001781302317
 23       0.000687640091
 24      -0.000217487331
 25      -0.011365089559
 26       0.005067209059
 27      -0.005746930176
 28      -0.050145550892
 29       0.018930790622
 30       0.057428364576
 31      -0.028400889440
 32      -0.058502971228
 33       0.035059250855
 34      -0.001468353109
 35      -0.003377009565
 36      -0.001651226180
 37      -0.003040371293
 38       0.052970399035
 39      -0.090127783187
 40      -0.060108651889
 41       0.365542980319
 42      -0.073407763631
 43      -0.326287400103
 44      -0.087805204452
 45       0.434603774137
 46      -0.066871668367
 47       0.019505897960
 48       0.080160775313
 49      -0.005779373427
 50      -0.000057546622
 51       0.003825682017
 52       0.039230102978
 53      -0.007130573044
 54       0.028262273933
 55       0.005994476443
 56       0.044871976164
 57      -0.027155095905
 58       0.002171727856
 59       0.005746401894
 60       0.008665971659
 61       0.027135455837
 Sym=     1a
 Ene=  1.00000000000000E+01
 Spin= Beta
 Occup= 0.092023
  1       0.086932694039
  2      -0.115793091102
  3      -0.055694282337
  4      -0.546907563819
  5       0.013239138693
  6      -0.483219235543
  7      -0.073816450073
  8      -0.687296184596
  9       0.074192001630
 10      -0.006594064173
 11       0.014908147003
 12       0.026811235369
 13       0.050711404882
 14       0.013788643344
 15       0.047218623490
 16       0.037339150987
 17       0.071493199342
 18       0.012186110628
 19       0.001562284406
 20      -0.005704262793
 21       0.002605461911
 22      -0.002731641908
 23       0.003004411379
 24      -0.005784606514
 25      -0.002955456368
 26       0.015798686866
 27      -0.021518124520
 28      -0.002629603849
 29       0.013275919418
 30       0.009374593516
 31      -0.025088269045
 32       0.027743344352
 33       0.006182166893
 34       0.015672895595
 35       0.014025954154
 36       0.009033909957
 37       0.008806156230
 38      -0.070718481251
 39       0.107542498394
 40       0.024018063649
 41      -0.360048827188
 42       0.073545547855
 43       0.406775527862
 44       0.039882321244
 45      -0.488681132417
 46       0.077557886630
 47       0.020060991490
 48       0.044250490977
 49      -0.004845515874
 50       0.008955710028
 51       0.002230624222
 52       0.076688650091
 53       0.001861582071
 54       0.003749878930
 55       0.012816020482
 56       0.090770751095
 57      -0.006170603687
 58      -0.003188691896
 59       0.005477136447
 60       0.013525656543
 61       0.052402062126
 Sym=     1a
 Ene=  1.10000000000000E+01
 Spin= Beta
 Occup= 1.993161
  1       0.048165360076
  2      -0.157970183602
  3       0.043776320303
  4       0.063873191647
  5      -0.320299337572
  6      -0.250180599501
  7       0.015668649726
  8       0.044661215703
  9      -0.163439657866
 10      -0.005035797528
 11       0.005902560364
 12       0.003341198878
 13      -0.008882276300
 14       0.030957102128
 15       0.019687832128
 16       0.013534177095
 17      -0.011608969389
 18       0.030963867857
 19       0.039295501571
 20       0.063079110038
 21       0.037884781701
 22       0.056675402764
 23       0.002527130846
 24       0.005445358323
 25       0.000538229412
 26      -0.001281639458
 27       0.001598238608
 28       0.005793573705
 29       0.000715335824
 30      -0.005937615536
 31      -0.000299730716
 32      -0.005949126864
 33       0.005557470687
 34      -0.005117451102
 35       0.004878339232
 36       0.000141975105
 37      -0.002711187493
 38      -0.003293207969
 39       0.004240650327
 40      -0.002193876676
 41      -0.015938884066
 42       0.018469190264
 43       0.010700004012
 44       0.002323741254
 45      -0.014305578034
 46       0.008809916281
 47       0.008590738406
 48       0.018343452440
 49       0.041492566948
 50      -0.126026955431
 51      -0.032774284520
 52      -0.064584359530
 53       0.293873316140
 54      -0.302267588407
 55      -0.031811943023
 56      -0.039820949167
 57       0.201937063005
 58       0.039896761385
 59       0.063599629107
 60       0.040152728549
 61       0.063495281996
 Sym=     1a
 Ene=  1.20000000000000E+01
 Spin= Beta
 Occup= 0.029408
  1       0.111375429290
  2      -0.285943203236
  3       0.082069620900
  4       0.106833552151
  5      -0.575690839019
  6      -0.720580228793
  7       0.047075477617
  8       0.140227812518
  9      -0.607233274261
 10      -0.000525671950
 11      -0.001261269955
 12      -0.022002829080
 13      -0.010962022394
 14       0.053378051329
 15      -0.019047331466
 16      -0.023877051493
 17      -0.014791329713
 18       0.046401165860
 19       0.002136871105
 20      -0.045551089618
 21       0.006157776753
 22      -0.039860270197
 23       0.000681946781
 24       0.001359714190
 25       0.002363751300
 26      -0.002001188248
 27       0.007184338515
 28       0.016649144309
 29      -0.000349700115
 30      -0.011736090193
 31      -0.000537785433
 32       0.003848395343
 33       0.001457593692
 34      -0.015437591045
 35       0.001960123048
 36       0.002282263608
 37      -0.000343595140
 38      -0.002218721450
 39       0.005414299394
 40      -0.006441322538
 41      -0.015077855731
 42       0.029406492972
 43       0.001949203081
 44       0.003249880267
 45       0.000108371888
 46       0.023242800666
 47      -0.002723756325
 48      -0.010132680632
 49      -0.110033818950
 50       0.260703869582
 51       0.066981381336
 52       0.123611089099
 53      -0.600199162973
 54       0.776069422303
 55       0.082625011415
 56       0.115275388661
 57      -0.592831086287
 58       0.002090051226
 59      -0.045100159818
 60      -0.005575234809
 61       0.040300682718
 Sym=     1a
 Ene=  1.30000000000000E+01
 Spin= Beta
 Occup= 0.000283
  1      -0.052955087608
  2      -0.259313408558
  3      -0.014544028702
  4      -0.010497913499
  5      -0.045895863779
  6       1.052217286281
  7      -0.702993804986
  8       0.175646741726
  9      -0.192767069328
 10      -0.064849356440
 11       1.531287008798
 12      -0.340631949250
 13      -0.005660515768
 14      -0.236060650074
 15      -2.212169801777
 16       0.016229851889
 17      -0.245011014945
 18       0.000799659070
 19      -0.030846024112
 20      -0.051011820013
 21       0.070327681952
 22       0.089083759349
 23       0.019917564646
 24       0.033090805273
 25       0.006510823992
 26       0.038030457362
 27      -0.006892513704
 28      -0.001009864803
 29      -0.016932901015
 30      -0.161170055407
 31       0.119023314455
 32      -0.005552585799
 33      -0.074109801453
 34       0.028173027203
 35      -0.075629757656
 36       0.003834697291
 37       0.011759349469
 38       0.016311711179
 39       0.081990199233
 40      -0.051276358481
 41      -0.037287997282
 42      -0.002910554044
 43      -0.299834752980
 44       0.294277693873
 45       0.267529196680
 46       0.028403675924
 47       0.163814630590
 48       0.425234222315
 49       0.013246693655
 50       0.069481746487
 51      -0.025616227036
 52       0.002950814890
 53       0.019545769202
 54      -0.314741152578
 55       0.304987574873
 56      -0.100956223854
 57       0.175364774414
 58       0.029256463983
 59      -0.015682337599
 60      -0.022163032155
 61       0.085806892533
 Sym=     1a
 Ene=  1.40000000000000E+01
 Spin= Beta
 Occup= 1.965050
  1       0.021559205739
  2      -0.008366879524
  3       0.050424738085
  4       0.025013791803
  5       0.022173491104
  6      -0.091756442729
  7       0.123330700932
  8       0.043504263638
  9       0.065272492990
 10      -0.079397017331
 11       0.187237627898
 12      -0.253151160359
 13      -0.250495008210
 14      -0.076878325324
 15       0.672676088332
 16      -0.283147643576
 17      -0.305945237512
 18      -0.075709359313
 19       0.000300021078
 20       0.001428356135
 21      -0.002044359183
 22      -0.004450990790
 23      -0.001216254344
 24      -0.000109369705
 25      -0.000184216706
 26      -0.001301280468
 27      -0.002673386759
 28       0.003411422095
 29       0.000031326383
 30       0.005602136863
 31      -0.007081537042
 32      -0.000855883323
 33       0.001975328168
 34       0.000855543751
 35       0.002650555454
 36      -0.000311949155
 37      -0.000551307122
 38      -0.003726528784
 39       0.003414938094
 40      -0.016906067776
 41      -0.006869090258
 42      -0.009025305299
 43       0.015236199400
 44      -0.027353520998
 45      -0.015034350978
 46      -0.013686461204
 47      -0.024499561582
 48      -0.047210470016
 49      -0.000503732872
 50       0.001101342702
 51      -0.008930130472
 52      -0.005024159578
 53      -0.002927574463
 54       0.000462769751
 55      -0.023817543187
 56      -0.002914175087
 57      -0.003659471150
 58       0.000091463667
 59       0.000203945829
 60      -0.003015307268
 61      -0.006171338982
 Sym=     1a
 Ene=  1.50000000000000E+01
 Spin= Beta
 Occup= 1.999806
  1      -0.001156382938
  2       0.000919655809
  3       0.000579882576
  4       0.001656271809
  5       0.000868480650
  6      -0.018618339073
  7       0.004200517701
  8      -0.001074489108
  9       0.000988495000
 10      -1.008059308965
 11      -0.068920252527
 12      -0.009803327716
 13      -0.011508267650
 14      -0.005974215928
 15       0.159904028372
 16       0.006483606672
 17      -0.003653277349
 18       0.005066904630
 19      -0.000267261995
 20      -0.000485584394
 21      -0.000588480672
 22      -0.000809805636
 23      -0.000080524805
 24       0.000085505116
 25      -0.000053844933
 26      -0.000401227130
 27       0.000157149881
 28       0.000101695111
 29      -0.000127377409
 30       0.001115086821
 31      -0.000419407790
 32      -0.000513472453
 33       0.000191522189
 34      -0.000409975151
 35       0.000144488148
 36      -0.000016832868
 37      -0.000212869154
 38       0.000155409549
 39      -0.000524921088
 40       0.000986726405
 41       0.001165196846
 42       0.000247502509
 43       0.001897402627
 44       0.000033077127
 45      -0.000641989862
 46       0.001042986149
 47      -0.003302014104
 48      -0.003481988454
 49       0.000195624266
 50      -0.000462264694
 51       0.001553968590
 52      -0.000139458066
 53       0.000307913461
 54       0.003402037996
 55       0.000038100545