[Molden Format]
[Title]
CLPOs

[Atoms] AU
C    1   6         -0.1231138478        -1.4368276251         0.1495897304 
O    2   8         -2.0569588178        -1.4904415364        -1.2540083050 
H    3   1          1.3572413843        -1.3435533328         3.9871739085 
H    4   1         -1.9823104839        -0.8774280128         3.6866694643 
H    5   1          1.9475092288         4.6540530531        -2.0895194088 
C    6   6          2.2824014655         2.6945011424        -1.5728736788 
H    7   1          2.5038183669         1.5414620763        -3.2736573586 
H    8   1          3.9775467962         2.5736696596        -0.4106671502 
O    9   8          0.2166530885         1.8257162005        -0.1024820058 
H   10   1         -1.2966952310         1.5035352804        -1.1690904995 
C   11   6         -0.3434944487        -1.8857145064         2.9551574241 
H   12   1         -0.6595835379        -3.9121276159         3.2010650822 
H   13   1          1.7391226889        -1.9826868676        -0.6432434643 
[GTO]
  1 0 
s   3 1.0  
      172.2560000000         0.0617669000 
       25.9109000000         0.3587940000 
        5.5333500000         0.7007130000 
s   2 1.0  
        3.6649800000        -0.3958970000 
        0.7705450000         1.2158400000 
p   2 1.0  
        3.6649800000         0.2364600000 
        0.7705450000         0.8606190000 
s   1 1.0  
        0.1958570000         1.0000000000 
p   1 1.0  
        0.1958570000         1.0000000000 

  2 0 
s   3 1.0  
      322.0370000000         0.0592394000 
       48.4308000000         0.3515000000 
       10.4206000000         0.7076580000 
s   2 1.0  
        7.4029400000        -0.4044530000 
        1.5762000000         1.2215600000 
p   2 1.0  
        7.4029400000         0.2445860000 
        1.5762000000         0.8539550000 
s   1 1.0  
        0.3736840000         1.0000000000 
p   1 1.0  
        0.3736840000         1.0000000000 

  3 0 
s   2 1.0  
        5.4471780000         0.1562850000 
        0.8245470000         0.9046910000 
s   1 1.0  
        0.1831920000         1.0000000000 

  4 0 
s   2 1.0  
        5.4471780000         0.1562850000 
        0.8245470000         0.9046910000 
s   1 1.0  
        0.1831920000         1.0000000000 

  5 0 
s   2 1.0  
        5.4471780000         0.1562850000 
        0.8245470000         0.9046910000 
s   1 1.0  
        0.1831920000         1.0000000000 

  6 0 
s   3 1.0  
      172.2560000000         0.0617669000 
       25.9109000000         0.3587940000 
        5.5333500000         0.7007130000 
s   2 1.0  
        3.6649800000        -0.3958970000 
        0.7705450000         1.2158400000 
p   2 1.0  
        3.6649800000         0.2364600000 
        0.7705450000         0.8606190000 
s   1 1.0  
        0.1958570000         1.0000000000 
p   1 1.0  
        0.1958570000         1.0000000000 

  7 0 
s   2 1.0  
        5.4471780000         0.1562850000 
        0.8245470000         0.9046910000 
s   1 1.0  
        0.1831920000         1.0000000000 

  8 0 
s   2 1.0  
        5.4471780000         0.1562850000 
        0.8245470000         0.9046910000 
s   1 1.0  
        0.1831920000         1.0000000000 

  9 0 
s   3 1.0  
      322.0370000000         0.0592394000 
       48.4308000000         0.3515000000 
       10.4206000000         0.7076580000 
s   2 1.0  
        7.4029400000        -0.4044530000 
        1.5762000000         1.2215600000 
p   2 1.0  
        7.4029400000         0.2445860000 
        1.5762000000         0.8539550000 
s   1 1.0  
        0.3736840000         1.0000000000 
p   1 1.0  
        0.3736840000         1.0000000000 

 10 0 
s   2 1.0  
        5.4471780000         0.1562850000 
        0.8245470000         0.9046910000 
s   1 1.0  
        0.1831920000         1.0000000000 

 11 0 
s   3 1.0  
      172.2560000000         0.0617669000 
       25.9109000000         0.3587940000 
        5.5333500000         0.7007130000 
s   2 1.0  
        3.6649800000        -0.3958970000 
        0.7705450000         1.2158400000 
p   2 1.0  
        3.6649800000         0.2364600000 
        0.7705450000         0.8606190000 
s   1 1.0  
        0.1958570000         1.0000000000 
p   1 1.0  
        0.1958570000         1.0000000000 

 12 0 
s   2 1.0  
        5.4471780000         0.1562850000 
        0.8245470000         0.9046910000 
s   1 1.0  
        0.1831920000         1.0000000000 

 13 0 
s   2 1.0  
        5.4471780000         0.1562850000 
        0.8245470000         0.9046910000 
s   1 1.0  
        0.1831920000         1.0000000000 

[5D]
[9G]
[MO]
 Sym=     1a
 Ene=  0.00000000000000E+00
 Spin= Beta
 Occup= 0.001868
  1       0.033563605889
  2       0.811377659643
  3       0.117969285267
  4       1.024881500292
  5      -0.036455836144
  6      -1.602583877214
  7       0.019123962325
  8      -1.674737017184
  9       0.038165250508
 10      -0.018664560150
 11       0.053716318920
 12       0.037445251850
 13       0.075714891008
 14       0.021261257946
 15       0.281322534236
 16       0.091043511624
 17       0.198139100051
 18       0.075798379766
 19      -0.044208600826
 20      -0.020128511969
 21      -0.073393075958
 22      -0.068056137665
 23       0.023292865789
 24       0.087405051511
 25      -0.018403467518
 26      -0.036123268559
 27      -0.014642427034
 28       0.001844511923
 29       0.007749812546
 30       0.176333945550
 31      -0.065844183577
 32      -0.216497146702
 33       0.130550619082
 34      -0.021689842133
 35       0.016987285291
 36      -0.027754726438
 37      -0.034867283746
 38      -0.037727801581
 39       0.050062984910
 40      -0.007172807621
 41      -0.108466601946
 42       0.033320644326
 43       0.366596367858
 44      -0.044835334048
 45      -0.419237449684
 46       0.135136946128
 47       0.074547915975
 48       0.290579662643
 49      -0.022445421581
 50      -0.050442139937
 51       0.000446047927
 52       0.062039290575
 53      -0.018639834814
 54       0.379474245993
 55      -0.030538369031
 56       0.494123284328
 57      -0.136039630640
 58       0.029789737918
 59       0.043957165219
 60       0.059139585629
 61       0.093639697533
 Sym=     1a
 Ene=  1.00000000000000E+00
 Spin= Beta
 Occup= 1.997618
  1      -0.050427274935
  2       0.145582868685
  3      -0.252746743151
  4      -0.012502789845
  5      -0.178351724015
  6       0.144597253748
  7      -0.026249932390
  8      -0.019133463949
  9      -0.009979149557
 10      -0.052966227135
 11       0.134357291680
 12       0.241495881231
 13      -0.020174101627
 14       0.174089804142
 15       0.369665574640
 16       0.265199229912
 17      -0.017081316308
 18       0.188661430727
 19       0.002456199184
 20       0.005867704125
 21      -0.008185555945
 22      -0.009715869753
 23       0.000005575315
 24      -0.002343287775
 25      -0.000161210904
 26       0.001264742518
 27      -0.000901699679
 28      -0.001374548027
 29       0.000613522239
 30      -0.001156302270
 31       0.001236739141
 32       0.003198245262
 33       0.002075945200
 34       0.000679673864
 35       0.008230330942
 36       0.001331138928
 37      -0.002697700619
 38       0.001648524908
 39       0.000922802240
 40       0.002713106334
 41       0.013161952478
 42      -0.000239718434
 43      -0.000573074121
 44      -0.002208415691
 45       0.013778832311
 46      -0.002397072293
 47      -0.015202249658
 48      -0.024847853935
 49       0.008265861963
 50      -0.008578596072
 51       0.021917671056
 52      -0.001339612606
 53       0.031559385857
 54      -0.057401332686
 55      -0.021354332526
 56      -0.002262491643
 57       0.059383825035
 58      -0.001723810898
 59      -0.000837567127
 60      -0.028418473487
 61      -0.054596112896
 Sym=     1a
 Ene=  2.00000000000000E+00
 Spin= Beta
 Occup= 0.012253
  1       0.112185216297
  2      -0.283651523178
  3       0.525952080544
  4       0.008242467478
  5       0.364223858972
  6      -0.802292481100
  7       0.547770958257
  8       0.026816849625
  9       0.396948486703
 10      -0.126223789489
 11       0.243147869208
 12       0.371764718878
 13      -0.020028654833
 14       0.271237457378
 15       0.799502046197
 16       0.528922124561
 17      -0.012974083608
 18       0.378018099755
 19      -0.001162637561
 20      -0.003015905118
 21       0.008717923783
 22       0.003455085353
 23      -0.001353983643
 24       0.002092782187
 25      -0.000603846494
 26      -0.000983289182
 27      -0.002970703911
 28       0.002402481094
 29      -0.000206936422
 30       0.006034599467
 31      -0.013053591721
 32      -0.005648871287
 33      -0.005350093659
 34       0.005905723991
 35      -0.005296346183
 36      -0.004191297636
 37       0.004833230556
 38      -0.006585169536
 39       0.012551460999
 40      -0.019769242572
 41      -0.038306658176
 42      -0.002705448067
 43       0.032625403323
 44      -0.019338512602
 45      -0.032850533168
 46      -0.007067299483
 47       0.029402648166
 48       0.020631712401
 49      -0.007654800579
 50       0.014079551666
 51      -0.080817810729
 52      -0.001051270336
 53      -0.033151018404
 54       0.011756089768
 55      -0.051033221237
 56      -0.010324319498
 57      -0.045547334391
 58       0.006041505388
 59      -0.000995338585
 60       0.014162488615
 61       0.040419225170
 Sym=     1a
 Ene=  3.00000000000000E+00
 Spin= Beta
 Occup= 1.999218
  1      -1.003305959840
  2      -0.067593449981
  3       0.001026672365
  4      -0.007149488475
  5       0.002598413059
  6       0.075302951406
  7       0.013166921634
  8       0.002660343454
  9       0.006328130732
 10      -0.004286553717
 11       0.003120895849
 12       0.012588511489
 13       0.000462290934
 14       0.008672598378
 15       0.014089184624
 16       0.021252921452
 17       0.000141584460
 18       0.015314087929
 19      -0.000624482291
 20      -0.000165556750
 21      -0.001716323687
 22      -0.001985558695
 23      -0.000728760134
 24      -0.001292356770
 25       0.000418346686
 26      -0.000148222804
 27       0.000203814033
 28       0.001492479509
 29      -0.000463826471
 30      -0.000718621431
 31       0.000410899957
 32       0.003705313870
 33      -0.000774432725
 34      -0.000231830540
 35      -0.000882438685
 36      -0.000190587947
 37      -0.000563334697
 38       0.000597650856
 39      -0.001319829554
 40       0.000262917964
 41       0.000657848586
 42      -0.000741631791
 43      -0.004436224752
 44       0.000184651813
 45      -0.000771354844
 46      -0.000766857379
 47       0.000030328476
 48       0.001333829316
 49      -0.004023926093
 50      -0.000482022277
 51      -0.000667096585
 52       0.001320625084
 53      -0.008278005678
 54       0.014643429999
 55      -0.002159304386
 56       0.002364629795
 57      -0.023089662724
 58      -0.002018470930
 59      -0.002100267588
 60       0.004540360067
 61       0.010591590934
 Sym=     1a
 Ene=  4.00000000000000E+00
 Spin= Beta
 Occup= 0.014574
  1      -0.000527383433
  2      -0.537320858299
  3       0.619423455192
  4       0.112814484766
  5       0.624194270277
  6       0.652640451206
  7      -1.350038886238
  8       0.060390207811
  9      -1.326578503357
 10       0.047164618775
 11      -0.176139925336
 12      -0.039166521265
 13       0.010648691640
 14      -0.000877821440
 15      -0.746871178061
 16      -0.065606681161
 17       0.041434700342
 18       0.020115102914
 19      -0.067225138233
 20      -0.108719295604
 21       0.066179444738
 22       0.111054966226
 23       0.004845771524
 24       0.023042425321
 25      -0.003695702255
 26      -0.003453810442
 27       0.001466235088
 28      -0.008217096890
 29      -0.006623092336
 30       0.027136303748
 31      -0.007649954391
 32      -0.040982644675
 33      -0.026004247870
 34      -0.009987103498
 35      -0.079416930167
 36      -0.000353693029
 37       0.039609370988
 38      -0.000919272060
 39       0.011189605560
 40       0.009384502509
 41       0.011463115629
 42       0.018897387761
 43       0.015920777068
 44       0.053642709558
 45       0.101073779928
 46       0.052611921253
 47      -0.072612906574
 48      -0.277594670937
 49       0.000389719502
 50       0.049979939969
 51       0.065302713712
 52       0.016510835485
 53      -0.040054583533
 54       0.369407960391
 55       0.521070081877
 56       0.052600940565
 57      -0.104655448492
 58       0.021195209254
 59       0.024059948818
 60       0.057013075282
 61       0.092159661140
 Sym=     1a
 Ene=  5.00000000000000E+00
 Spin= Beta
 Occup= 0.001046
  1      -0.053689926162
  2      -1.699042722382
  3      -0.431967474311
  4       0.353182339862
  5      -0.074920263274
  6       3.676770069955
  7       1.061649334134
  8      -0.544805482663
  9       0.650359192983
 10       0.012645804086
 11      -0.019725230442
 12      -0.046867004764
 13       0.028639146628
 14      -0.013851535756
 15      -0.155888377279
 16      -0.109288815100
 17       0.097415199488
 18      -0.069068981828
 19       0.085745231889
 20       0.033105426183
 21       0.009391531262
 22      -0.104524594614
 23       0.010765368478
 24      -0.011516948368
 25       0.008514597342
 26       0.029281681822
 27       0.001298596729
 28      -0.012756458331
 29       0.008747178790
 30      -0.127946268851
 31       0.057639235080
 32       0.031220821091
 33      -0.046656436580
 34       0.001642994665
 35       0.063059609410
 36       0.008417126522
 37       0.013623797518
 38       0.025978036979
 39       0.000639161212
 40      -0.009718666885
 41       0.022531123569
 42      -0.004973986490
 43      -0.184553439645
 44      -0.028075057200
 45       0.294515899035
 46      -0.083841094160
 47       0.031155119383
 48      -0.034912379605
 49       0.054135241775
 50       0.067622884818
 51      -0.047966638467
 52      -0.004488527258
 53       0.128405992303
 54      -1.328016123463
 55      -0.376196645111
 56      -0.024685749156
 57       0.830195555081
 58       0.063731693060
 59      -0.056555253811
 60      -0.344123595831
 61      -1.082172131597
 Sym=     1a
 Ene=  6.00000000000000E+00
 Spin= Beta
 Occup= 0.004218
  1       0.032509748299
  2       0.489544524198
  3      -0.625606120289
  4       0.003645191430
  5       0.704302851985
  6      -1.325133158491
  7       1.744137767821
  8      -0.076136785158
  9      -2.142202331950
 10      -0.019275437467
 11       0.056575073667
 12      -0.056761495211
 13       0.003052917640
 14       0.128413664144
 15       0.282895963403
 16      -0.189097573914
 17       0.003402053482
 18       0.398660416276
 19       0.031651275048
 20       0.182163766903
 21      -0.087666229340
 22       0.003941866940
 23      -0.034942432519
 24      -0.080586181032
 25       0.008920753850
 26       0.026887026386
 27      -0.026394772945
 28       0.003170964335
 29       0.007392896736
 30       0.043126961610
 31       0.039445277075
 32       0.164986606293
 33      -0.017284028334
 34       0.014570438261
 35      -0.058717291501
 36      -0.003541560979
 37      -0.002631538551
 38      -0.007414166861
 39       0.002214083924
 40      -0.021002940740
 41       0.004258296763
 42       0.033968978319
 43       0.066676324590
 44      -0.129116809469
 45      -0.078314653349
 46       0.173382445024
 47       0.006015765237
 48       0.087656509097
 49      -0.044445643891
 50      -0.000583544348
 51      -0.044009832118
 52       0.043131331523
 53      -0.162224247324
 54       1.506143941950
 55      -0.376704527468
 56       0.226139128387
 57      -0.961138245810
 58      -0.030953847468
 59       0.069005047990
 60      -0.251794907294
 61      -0.811434113650
 Sym=     1a
 Ene=  7.00000000000000E+00
 Spin= Beta
 Occup= 1.991256
  1      -0.056652341318
  2       0.127292678016
  3       0.295162537773
  4      -0.064248972356
  5      -0.149413320072
  6       0.346708256799
  7       0.176388582318
  8      -0.030129211865
  9      -0.049650574512
 10       0.007150862070
 11      -0.008790826766
 12      -0.032949391576
 13       0.006866956923
 14       0.007382187839
 15      -0.034932442338
 16      -0.042250541004
 17       0.008805966704
 18      -0.002548426012
 19      -0.010342566681
 20      -0.013684678029
 21       0.001142213480
 22      -0.000309195787
 23      -0.001444574486
 24       0.009650418613
 25       0.004322627506
 26      -0.010202651467
 27       0.007736687248
 28       0.027492366886
 29      -0.011167187211
 30      -0.012877868382
 31       0.002787921252
 32      -0.000739221917
 33       0.000413895817
 34      -0.014151310470
 35      -0.001624124156
 36      -0.005537180449
 37      -0.002572395321
 38       0.004558160882
 39      -0.005977836693
 40      -0.009413882606
 41       0.026651043250
 42      -0.000623918547
 43      -0.018996008655
 44      -0.009029963765
 45       0.033769221784
 46      -0.005981369057
 47      -0.009981589970
 48      -0.020919179540
 49       0.012930068653
 50      -0.013090876859
 51      -0.042232874684
 52       0.004163476012
 53       0.042552887621
 54      -0.086883741983
 55      -0.012736141650
 56      -0.008678437058
 57       0.095790892592
 58      -0.003674829753
 59      -0.002757586024
 60       0.313434307069
 61       0.258486697482
 Sym=     1a
 Ene=  8.00000000000000E+00
 Spin= Beta
 Occup= 0.058798
  1      -0.114132872812
  2       0.189846584879
  3       0.480395262608
  4      -0.124546315830
  5      -0.230932362822
  6       0.825181326946
  7       0.628717011355
  8      -0.142998529309
  9      -0.234381356224
 10       0.001766501392
 11       0.005166292487
 12      -0.048467929600
 13       0.017510513737
 14       0.043161244481
 15       0.012432352041
 16      -0.066690232072
 17       0.023233123752
 18       0.050209864767
 19       0.012259583486
 20       0.007904743026
 21       0.006873091564
 22      -0.007293506101
 23       0.001131146693
 24      -0.001027026032
 25       0.000999983940
 26      -0.003651721350
 27       0.012182946874
 28      -0.008499109126
 29       0.001506424236
 30      -0.000245677576
 31       0.002957948953
 32      -0.003024013285
 33      -0.004293520972
 34       0.012835694606
 35       0.002933903019
 36       0.005972329432
 37       0.002141910321
 38       0.007013034880
 39      -0.010432255756
 40      -0.022391780455
 41       0.029996814447
 42       0.008220577674
 43      -0.035990697410
 44      -0.019992111843
 45       0.047114804710
 46       0.004181922007
 47       0.001249782352
 48      -0.003134074287
 49       0.006900424997
 50       0.003304027044
 51      -0.060995657901
 52       0.014106050693
 53       0.004020990359
 54      -0.056868558516
 55      -0.076699148424
 56       0.013008859678
 57       0.060644029784
 58       0.004013931346
 59       0.003350346759
 60      -0.775398337114
 61      -0.822360015798
 Sym=     1a
 Ene=  9.00000000000000E+00
 Spin= Beta
 Occup= 1.942076
  1      -0.019104584026
  2       0.046666856946
  3       0.019142588773
  4       0.197545245577
  5      -0.006905546749
  6       0.027778045622
  7       0.035005142120
  8       0.232324997862
  9      -0.008173183889
 10      -0.001640864073
 11       0.002102906672
 12       0.033877977427
 13       0.457531984658
 14      -0.011848334310
 15       0.033365423724
 16       0.045913943920
 17       0.551750705571
 18      -0.010597970202
 19       0.002288162287
 20       0.005048926064
 21      -0.001028749895
 22       0.002726613057
 23       0.000730547847
 24       0.000338966105
 25       0.001400854882
 26       0.000110872773
 27       0.000160219103
 28       0.004754886296
 29      -0.006222284266
 30      -0.009684761924
 31       0.009377572786
 32       0.004721189650
 33      -0.005728386246
 34      -0.001774433452
 35      -0.001599356271
 36      -0.000199233677
 37      -0.002794838628
 38       0.007070754862
 39      -0.003939482334
 40      -0.000926519341
 41       0.038602007949
 42      -0.007301000753
 43      -0.022298619313
 44       0.002502854485
 45       0.057981693931
 46      -0.010557731052
 47      -0.045784962155
 48      -0.076361999564
 49      -0.000956764056
 50      -0.002499064877
 51      -0.005548271982
 52      -0.024423175758
 53      -0.007335300625
 54       0.019863605311
 55      -0.009671776485
 56      -0.042310944031
 57      -0.018061821314
 58      -0.001017376057
 59      -0.004195213215
 60       0.003206919442
 61       0.003040085357
 Sym=     1a
 Ene=  1.00000000000000E+01
 Spin= Beta
 Occup= 0.270037
  1       0.039139892543
  2      -0.092501671872
  3      -0.036056710633
  4      -0.544025783152
  5       0.027259518089
  6      -0.106820571527
  7      -0.038636182537
  8      -0.727920523525
  9       0.054310575619
 10      -0.003311028803
 11       0.005934064819
 12       0.030208870515
 13       0.295921797180
 14      -0.001364044058
 15       0.024508462961
 16       0.040518443764
 17       0.379901552899
 18      -0.003250373913
 19      -0.000423324333
 20      -0.007938102309
 21      -0.000840159161
 22      -0.007460698703
 23       0.003805043880
 24      -0.002687538424
 25      -0.006847705642
 26       0.013454346607
 27      -0.017521965398
 28      -0.024867862228
 29       0.016590658713
 30       0.027021747427
 31      -0.025232204279
 32      -0.008654185377
 33       0.016175788252
 34       0.011247620236
 35       0.007997967639
 36       0.005600078836
 37       0.005111162653
 38      -0.023873207974
 39       0.035077813400
 40      -0.009858788532
 41      -0.090312411085
 42       0.019634673056
 43       0.130248014813
 44      -0.010305247675
 45      -0.132804906989
 46       0.024245374593
 47       0.010960788309
 48       0.019918296121
 49       0.000507126935
 50       0.001251381563
 51      -0.001581809311
 52       0.079533253287
 53       0.021012042786
 54      -0.050310008657
 55       0.003836553627
 56       0.103805227332
 57       0.039027889475
 58      -0.001741409491
 59       0.005961640798
 60      -0.017184328984
 61      -0.015402281627
 Sym=     1a
 Ene=  1.10000000000000E+01
 Spin= Beta
 Occup= 1.993784
  1       0.049624549306
  2      -0.157652794032
  3       0.033181980885
  4       0.025100672305
  5      -0.321681966439
  6      -0.250374380128
  7       0.008920326109
  8       0.003878445807
  9      -0.152589282008
 10      -0.006771256635
 11       0.008340006257
 12       0.003176917980
 13      -0.003052471241
 14       0.031527975984
 15       0.029058192456
 16       0.013448867847
 17      -0.003425560204
 18       0.034043734671
 19       0.038786972747
 20       0.064391510299
 21       0.038712798552
 22       0.058809828584
 23       0.002372161765
 24       0.004573352319
 25       0.000271292533
 26      -0.000581884505
 27       0.000959917337
 28       0.004242216126
 29       0.001476386135
 30      -0.005732144956
 31      -0.001568650672
 32      -0.005046271487
 33       0.005951013012
 34      -0.004462715979
 35       0.006086643920
 36       0.000510798534
 37      -0.002472359854
 38      -0.004104222784
 39       0.005363764362
 40      -0.001845676304
 41      -0.020433768873
 42       0.017262946058
 43       0.013992850109
 44       0.002276829525
 45      -0.019804236751
 46       0.008088991423
 47       0.009375265090
 48       0.013340317146
 49       0.042813170495
 50      -0.124284289164
 51      -0.028473162386
 52      -0.059009394951
 53       0.297187205073
 54      -0.319329408772
 55      -0.030257053395
 56      -0.039968269596
 57       0.214698760223
 58       0.039391935162
 59       0.063803450269
 60       0.039294382767
 61       0.064967186723
 Sym=     1a
 Ene=  1.20000000000000E+01
 Spin= Beta
 Occup= 0.045247
  1       0.114173252184
  2      -0.299481931145
  3       0.063060987419
  4       0.056613154888
  5      -0.588306973830
  6      -0.713635445346
  7       0.026133244400
  8       0.076007141387
  9      -0.610212420093
 10      -0.000249387905
 11      -0.004151392843
 12      -0.025906621245
 13      -0.006693145721
 14       0.057431562416
 15      -0.028661087804
 16      -0.028446354192
 17      -0.009520640185
 18       0.053525774202
 19       0.002795606221
 20      -0.042686404312
 21       0.004816065623
 22      -0.041450549147
 23       0.000984546293
 24       0.000844172441
 25       0.001609576067
 26      -0.000425115862
 27       0.006018871552
 28       0.012526570773
 29       0.000645451819
 30      -0.009535723040
 31      -0.002884957968
 32       0.003070302121
 33       0.001655396879
 34      -0.014594987678
 35       0.003063583473
 36       0.002703542530
 37       0.000470399675
 38      -0.003516553677
 39       0.008294068684
 40      -0.006087744962
 41      -0.020595735706
 42       0.023324292351
 43       0.010428063040
 44       0.003311281505
 45      -0.007215150510
 46       0.017994444068
 47       0.001477149875
 48      -0.006657605298
 49      -0.109696553914
 50       0.252556548870
 51       0.051498315621
 52       0.109395949999
 53      -0.592077272259
 54       0.772144202597
 55       0.066469198105
 56       0.106880867482
 57      -0.599320302809
 58       0.001111055208
 59      -0.046263696928
 60      -0.006931028737
 61       0.038488902455
 Sym=     1a
 Ene=  1.30000000000000E+01
 Spin= Beta
 Occup= 0.000022
  1      -0.054280247684
  2      -0.255630351490
  3      -0.025849910294
  4      -0.040298385732
  5      -0.059654725245
  6       1.277508974375
  7      -0.984820825859
  8       0.165779524135
  9      -0.363905048859
 10      -0.066050196888
 11       1.543990692864
 12      -0.286891705740
 13      -0.141632891870
 14      -0.221543586156
 15      -2.342978843151
 16      -0.147073115217
 17       0.079153334286
 18      -0.130505946234
 19      -0.054016487868
 20      -0.100994459251
 21       0.084191490378
 22       0.128547940690
 23       0.017188346426
 24       0.032448428728
 25       0.003958219539
 26       0.022842312315
 27      -0.001445101792
 28       0.001404206210
 29      -0.013445529343
 30      -0.114997579285
 31       0.080146733114
 32      -0.030890125094
 33      -0.067919640648
 34       0.023837283112
 35      -0.086586128836
 36      -0.001446750559
 37       0.029113114841
 38       0.012445034958
 39       0.076222991008
 40      -0.040547277833
 41      -0.035268198338
 42       0.001724030503
 43      -0.252308979575
 44       0.233464482730
 45       0.233839461783
 46       0.019488276680
 47       0.032274864873
 48       0.111632010644
 49       0.013041149402
 50       0.066353673687
 51      -0.037392345493
 52       0.003645596854
 53       0.018120893205
 54      -0.267862888545
 55       0.452428415341
 56      -0.076532036012
 57       0.172362595903
 58       0.035679770947
 59      -0.009916131071
 60      -0.010755068412
 61       0.132540674147
 Sym=     1a
 Ene=  1.40000000000000E+01
 Spin= Beta
 Occup= 1.961439
  1       0.028948706592
  2      -0.008959568701
  3       0.064532098210
  4      -0.001199223095
  5       0.050161402141
  6      -0.157681484081
  7       0.182547573443
  8      -0.012965382585
  9       0.122697614810
 10      -0.045789756272
 11       0.217732515786
 12      -0.210293023038
 13       0.013112487845
 14      -0.193516066332
 15       0.822034307545
 16      -0.215326079361
 17       0.019435184318
 18      -0.203110395661
 19       0.002997988030
 20       0.005436500256
 21      -0.005843085577
 22      -0.008904901485
 23      -0.000302585450
 24      -0.001027949496
 25      -0.000786654806
 26       0.001303358904
 27      -0.004643038535
 28       0.000078790481
 29       0.000981368454
 30       0.006614738792
 31      -0.006730547199
 32       0.000722282541
 33       0.002851356903
 34       0.002243442440
 35       0.004467445146
 36       0.000131669873
 37      -0.001445994696
 38      -0.004633096834
 39       0.006659234623
 40      -0.014620328024
 41      -0.007679394712
 42      -0.006949221242
 43       0.031217962490
 44      -0.023718660762
 45      -0.018754105681
 46      -0.009189453979
 47      -0.022120996431
 48      -0.034316954209
 49      -0.001446652309
 50      -0.004263622376
 51      -0.019601866958
 52      -0.001049163511
 53       0.000105339160
 54      -0.005179551033
 55      -0.046064772411
 56       0.001089687771
 57      -0.004697980837
 58      -0.001803177316
 59      -0.000299657835
 60      -0.007438394668
 61      -0.016042338755
 Sym=     1a
 Ene=  1.50000000000000E+01
 Spin= Beta
 Occup= 1.999711
  1      -0.000239936276
  2       0.000026838244
  3       0.003849524179
  4       0.000844544424
  5       0.003428678214
  6      -0.029284043702
  7       0.014509913346
  8      -0.002430124149
  9       0.007221543846
 10      -1.012482759408
 11      -0.056409935802
 12      -0.021713697887
 13       0.001235978093
 14      -0.017047323538
 15       0.207846624829
 16      -0.005446559544
 17       0.005335526567
 18      -0.005089238965
 19      -0.000016219447
 20      -0.000042590292
 21      -0.000953832654
 22      -0.001236453926
 23      -0.000038950140
 24      -0.000054554424
 25      -0.000136286837
 26      -0.000087128191
 27      -0.000344010397
 28      -0.000046462518
 29      -0.000022474874
 30       0.001418128422
 31      -0.000911788278
 32      -0.000209723256
 33       0.000445468663
 34      -0.000214845048
 35       0.000582729538
 36       0.000100021837
 37      -0.000299901526
 38      -0.000289420497
 39       0.000172318702
 40      -0.000335542879
 41       0.000695656329
 42      -0.000315303397
 43       0.004792832895
 44      -0.001917676381
 45      -0.001606429490
 46       0.000024970936
 47      -0.004073650776
 48      -0.006510126030
 49       0.000082838185
 50      -0.000717965578
 51       0.000626547759
 52       0.000015804768
 53       0.000243796457
 54       0.003759893703
 55      -0.002729652030