[Molden Format]
[Atoms] (AU)
C    1    6        -0.123113847759      -1.436827625092       0.149589730431
O    2    8        -2.056958817802      -1.490441536355      -1.254008305023
H    3    1         1.357241384299      -1.343553332783       3.987173908496
H    4    1        -1.982310483887      -0.877428012779       3.686669464298
H    5    1         1.947509228787       4.654053053145      -2.089519408771
C    6    6         2.282401465504       2.694501142410      -1.572873678824
H    7    1         2.503818366863       1.541462076333      -3.273657358647
H    8    1         3.977546796150       2.573669659649      -0.410667150180
O    9    8         0.216653088466       1.825716200494      -0.102482005825
H   10    1        -1.296695230963       1.503535280412      -1.169090499505
C   11    6        -0.343494448664      -1.885714506384       2.955157424105
H   12    1        -0.659583537919      -3.912127615938       3.201065082176
H   13    1         1.739122688918      -1.982686867616      -0.643243464336
[GTO]
  1 0
 s    3  1.00
      172.2560000000         0.0617669000
       25.9109000000         0.3587940000
        5.5333500000         0.7007130000
 s    2  1.00
        3.6649800000        -0.3958970000
        0.7705450000         1.2158400000
 p    2  1.00
        3.6649800000         0.2364600000
        0.7705450000         0.8606190000
 s    1  1.00
        0.1958570000         1.0000000000
 p    1  1.00
        0.1958570000         1.0000000000

  2 0
 s    3  1.00
      322.0370000000         0.0592394000
       48.4308000000         0.3515000000
       10.4206000000         0.7076580000
 s    2  1.00
        7.4029400000        -0.4044530000
        1.5762000000         1.2215600000
 p    2  1.00
        7.4029400000         0.2445860000
        1.5762000000         0.8539550000
 s    1  1.00
        0.3736840000         1.0000000000
 p    1  1.00
        0.3736840000         1.0000000000

  3 0
 s    2  1.00
        5.4471780000         0.1562850000
        0.8245470000         0.9046910000
 s    1  1.00
        0.1831920000         1.0000000000

  4 0
 s    2  1.00
        5.4471780000         0.1562850000
        0.8245470000         0.9046910000
 s    1  1.00
        0.1831920000         1.0000000000

  5 0
 s    2  1.00
        5.4471780000         0.1562850000
        0.8245470000         0.9046910000
 s    1  1.00
        0.1831920000         1.0000000000

  6 0
 s    3  1.00
      172.2560000000         0.0617669000
       25.9109000000         0.3587940000
        5.5333500000         0.7007130000
 s    2  1.00
        3.6649800000        -0.3958970000
        0.7705450000         1.2158400000
 p    2  1.00
        3.6649800000         0.2364600000
        0.7705450000         0.8606190000
 s    1  1.00
        0.1958570000         1.0000000000
 p    1  1.00
        0.1958570000         1.0000000000

  7 0
 s    2  1.00
        5.4471780000         0.1562850000
        0.8245470000         0.9046910000
 s    1  1.00
        0.1831920000         1.0000000000

  8 0
 s    2  1.00
        5.4471780000         0.1562850000
        0.8245470000         0.9046910000
 s    1  1.00
        0.1831920000         1.0000000000

  9 0
 s    3  1.00
      322.0370000000         0.0592394000
       48.4308000000         0.3515000000
       10.4206000000         0.7076580000
 s    2  1.00
        7.4029400000        -0.4044530000
        1.5762000000         1.2215600000
 p    2  1.00
        7.4029400000         0.2445860000
        1.5762000000         0.8539550000
 s    1  1.00
        0.3736840000         1.0000000000
 p    1  1.00
        0.3736840000         1.0000000000

  10 0
 s    2  1.00
        5.4471780000         0.1562850000
        0.8245470000         0.9046910000
 s    1  1.00
        0.1831920000         1.0000000000

  11 0
 s    3  1.00
      172.2560000000         0.0617669000
       25.9109000000         0.3587940000
        5.5333500000         0.7007130000
 s    2  1.00
        3.6649800000        -0.3958970000
        0.7705450000         1.2158400000
 p    2  1.00
        3.6649800000         0.2364600000
        0.7705450000         0.8606190000
 s    1  1.00
        0.1958570000         1.0000000000
 p    1  1.00
        0.1958570000         1.0000000000

  12 0
 s    2  1.00
        5.4471780000         0.1562850000
        0.8245470000         0.9046910000
 s    1  1.00
        0.1831920000         1.0000000000

  13 0
 s    2  1.00
        5.4471780000         0.1562850000
        0.8245470000         0.9046910000
 s    1  1.00
        0.1831920000         1.0000000000

[MO]
 Sym= A
 Ene=        -0.0000000000
 Spin= Alpha
 Occup= -0.0000
  1       0.072276504598
  2       1.594498789078
  3       0.083085988680
  4       0.147591045842
  5       0.183134560397
  6      -4.186292724637
  7       0.380862817078
  8      -0.498169160757
  9      -1.563851396427
 10      -0.003605779025
 11      -0.254340976443
 12       0.078706565902
 13       0.005594581804
 14      -0.029977231654
 15       0.793246851670
 16      -0.073526092493
 17       0.077827566264
 18       0.438856126721
 19      -0.141040834904
 20      -0.710849005928
 21      -0.140870166214
 22      -1.014836845922
 23      -0.094836513798
 24      -0.210052187173
 25      -0.012851563758
 26      -0.112843185192
 27      -0.088228148395
 28       0.050296029102
 29      -0.011022711300
 30       0.526008279753
 31      -0.047895362315
 32       0.135853871462
 33      -0.016660801774
 34       0.070382456464
 35      -0.242999325695
 36      -0.009469896628
 37       0.007129243370
 38      -0.026107693366
 39      -0.221782984963
 40       0.054167578289
 41       0.219427124129
 42      -0.030756973270
 43       0.657526115563
 44      -0.224605049276
 45      -0.751359751520
 46       0.197000805644
 47      -0.113174316423
 48       0.105323217521
 49      -0.109754828816
 50      -1.266242733689
 51       0.021734693056
 52      -0.034031061806
 53      -0.080845445639
 54       4.675975004434
 55      -0.153025666272
 56       0.579631536277
 57      -0.882904713997
 58      -0.170435341601
 59      -0.418409136838
 60      -0.013321953416
 61       0.345476804896
 Sym= A
 Ene=        -0.0000000000
 Spin= Alpha
 Occup= -0.0000
  1       0.020038440913
  2       0.797243482176
  3      -0.161642769385
  4       0.189563081856
  5       0.002859983882
  6      -1.662464680821
  7       1.749954850010
  8      -0.783996624289
  9       1.288237418066
 10      -0.025575784912
 11      -0.699651983281
 12      -0.003179166770
 13      -0.024931254358
 14      -0.158640686061
 15       2.207294149732
 16       0.581831240310
 17       0.072308268894
 18       0.476308151708
 19       0.099381622346
 20       1.086932865626
 21      -0.127263254666
 22       0.270384767074
 23      -0.055974272971
 24      -0.098299705688
 25      -0.019990193742
 26       0.058999937516
 27      -0.059888103286
 28      -0.008073795180
 29       0.048991592751
 30       0.258529311798
 31       0.045257715626
 32       0.117887037631
 33       0.181137302843
 34      -0.060007039727
 35       0.195268417838
 36      -0.036607103712
 37      -0.228956365363
 38      -0.005572655378
 39      -0.137339773174
 40       0.169792571414
 41       0.204628439341
 42      -0.043114841567
 43       0.315644734517
 44      -0.373186071592
 45      -0.641098451120
 46       0.066268338295
 47      -0.090597504681
 48       0.427245397289
 49       0.064275320289
 50       0.542991490983
 51       0.194498956256
 52      -0.035085004578
 53      -0.068461013386
 54      -2.070940523388
 55      -1.178754336034
 56       0.112086005760
 57      -0.009445554819
 58       0.001490213530
 59       0.452178214228
 60      -0.179264386511
 61      -0.071610093259
 Sym= A
 Ene=        -0.0000000000
 Spin= Alpha
 Occup= -0.0000
  1      -0.022255928713
  2      -0.654162178731
  3      -0.351246818729
  4      -0.079593819782
  5       0.090396424991
  6       1.037013474793
  7       1.528768015639
  8       0.319210490780
  9      -0.257055534495
 10      -0.012855482025
 11       0.072695628842
 12       0.171678171884
 13       0.005572360085
 14      -0.117846806952
 15       0.189541732163
 16      -0.196069167488
 17      -0.113530861144
 18       0.249196309193
 19       0.125320061077
 20       0.706415623971
 21       0.248138734111
 22      -1.574888321887
 23       0.072359686778
 24       0.050442703870
 25       0.024470569264
 26       0.153698153106
 27      -0.013622959484
 28      -0.154860442870
 29       0.065324681526
 30      -0.431324637560
 31       0.200206817408
 32       0.217309936170
 33       0.062356554400
 34       0.161265299965
 35       0.094673987258
 36       0.041165072319
 37      -0.117628128398
 38       0.017002114101
 39       0.125122160477
 40      -0.074148514205
 41      -0.123981458414
 42      -0.013806809917
 43      -0.377017638124
 44       0.071401399526
 45       0.413198993104
 46      -0.052327883126
 47      -0.045966764965
 48       0.336791167042
 49       0.033226456896
 50      -0.904618303538
 51       0.301815228398
 52      -0.082029225881
 53       0.128159145386
 54       1.341046261647
 55      -1.706480089116
 56       0.075262925535
 57      -0.161027843304
 58      -0.224967788845
 59      -0.038449894713
 60      -0.204918977577
 61      -0.847200967049
 Sym= A
 Ene=        -0.0000000000
 Spin= Alpha
 Occup= -0.0000
  1       0.017587896358
  2      -0.065025463759
  3       0.180977837450
  4       0.095598281585
  5       0.024615818550
  6      -0.608738811433
  7       0.211382208649
  8       0.368724245536
  9       0.111435508114
 10      -0.025684570504
 11      -0.068409497952
 12      -0.223091848004
 13      -0.020741042677
 14      -0.007699051640
 15       0.402929544496
 16       0.503707363925
 17      -0.209654343487
 18       0.237423697035
 19      -0.004264973400
 20       0.333917242090
 21       0.014260347019
 22      -0.223913021394
 23      -0.216044441144
 24      -0.413875796961
 25      -0.060217530882
 26      -1.021330905613
 27      -0.089223727113
 28       0.117716040686
 29       0.168177873413
 30       2.641009807958
 31      -0.160622893405
 32      -0.489506968616
 33      -1.046705457198
 34       0.081637055855
 35      -1.927610549156
 36      -0.042739705275
 37       0.006604164286
 38       0.024653598456
 39       0.340505938662
 40      -0.135390378917
 41      -0.127044151462
 42       0.075852761283
 43      -0.919900319311
 44       0.134987731391
 45       0.252855813537
 46       0.328442063555
 47       0.125276553617
 48       0.318842443450
 49      -0.026686062354
 50       0.134341226441
 51       0.024916548133
 52      -0.003023877766
 53      -0.010093246144
 54       0.142210960110
 55      -0.379086164736
 56      -0.194238807702
 57      -0.249402972359
 58       0.102699279896
 59      -0.308796230298
 60      -0.056208442145
 61       0.260419065590
 Sym= A
 Ene=        -0.0000000000
 Spin= Alpha
 Occup= -0.0000
  1      -0.039935658397
  2       0.045304641601
  3      -0.448206168968
  4       0.271286779036
  5       0.120412254485
  6       0.860297428063
  7       1.062973738857
  8      -0.553162568793
  9      -1.163942893049
 10       0.017898606493
 11       0.232168412629
 12       0.065660716040
 13       0.004322457498
 14       0.092702524317
 15      -0.479724146709
 16      -0.545446237498
 17       0.041265451578
 18      -0.099695435660
 19       0.050262477965
 20       0.202549214761
 21      -0.417067619561
 22       0.626732274491
 23      -0.057925523089
 24       0.451285299573
 25       0.013884704611
 26      -0.318646814607
 27      -0.041009890577
 28       0.063570634353
 29       0.150987243932
 30       0.390462537496
 31      -0.008115635427
 32      -0.571019001381
 33      -0.144240307478
 34       0.018746380851
 35      -0.399987328395
 36      -0.209893456729
 37       0.254208926661
 38       0.017355937237
 39      -0.064243358693
 40       0.249727064211
 41       0.174780642426
 42      -0.025856867147
 43      -0.075624809044
 44      -0.414176248699
 45      -0.103911806185
 46       0.167421032867
 47      -0.034032738805
 48       0.036197807714
 49      -0.009590111421
 50       0.035931248356
 51      -0.034911406319
 52       0.046323010412
 53       0.325102074340
 54       0.216917194894
 55      -0.125690342575
 56       0.053353493237
 57      -0.752578426511
 58       0.103519795651
 59      -0.128206472239
 60       0.414596235350
 61      -2.001465515909
 Sym= A
 Ene=        -0.0000000000
 Spin= Alpha
 Occup= -0.0000
  1       0.011604683082
  2      -0.337835969897
  3      -0.284494000833
  4      -0.038232027970
  5      -0.050334581350
  6       1.086888660505
  7      -0.508094100881
  8      -0.098147106734
  9       0.846171057625
 10       0.024302581417
 11      -0.083690285032
 12       0.561849309607
 13       0.236201016025
 14      -0.003199095847
 15      -0.152886454462
 16      -0.552789269903
 17      -0.095683547468
 18      -0.355971594240
 19      -0.129924986586
 20      -0.712830350518
 21      -0.143737710843
 22       0.231093863478
 23      -0.208593412707
 24      -0.170061273277
 25      -0.031290401548
 26      -0.487394539554
 27      -0.064637994577
 28       0.064883871485
 29       0.202153595167
 30       1.322977215672
 31      -0.158596825950
 32      -0.087478832804
 33      -0.402419948903
 34       0.161633815031
 35      -0.809517201666
 36      -0.015487193893
 37      -0.060996931926
 38       0.003130729725
 39       0.026201747278
 40      -0.055314164581
 41       0.129597132801
 42      -0.010636308412
 43      -0.120960616966
 44      -0.145376521513
 45      -0.246674758203
 46       0.034193453081
 47       0.040727946333
 48      -0.311800452004
 49       0.007732795909
 50      -0.176670433586
 51      -0.118673816381
 52       0.037235096446
 53       0.114312423663
 54      -0.243642768893
 55       0.584635687211
 56      -0.199295146425
 57       0.967449833419
 58      -0.176990339609
 59      -0.076036235521
 60      -0.001078857719
 61       0.556355956202
 Sym= A
 Ene=        -0.0000000000
 Spin= Alpha
 Occup= -0.0000
  1       0.036752881277
  2      -0.048890119048
  3       0.299354236490
  4      -0.079337233533
  5      -0.073979564713
  6      -0.027786555917
  7      -0.714940588217
  8      -0.254988496192
  9       0.447700564150
 10       0.006549811480
 11      -0.268712076252
 12      -0.032208222811
 13      -0.028216995807
 14       0.210797957687
 15       0.281182614565
 16       0.203020069981
 17       0.362432680152
 18      -0.362865224485
 19       0.036524804366
 20       0.695165194190
 21       0.207104298957
 22      -0.748009530006
 23      -0.033630210466
 24       0.518325951542
 25       0.047269226396
 26      -0.232068467876
 27      -0.078446347668
 28       0.131491312286
 29       0.189749699334
 30      -0.132184592539
 31      -0.258751995504
 32      -0.545430820871
 33      -0.465460099655
 34       0.001219347369
 35      -0.290969071122
 36      -0.071844662201
 37       0.649438091231
 38      -0.044671863055
 39       0.149716170876
 40       0.294050999195
 41       0.186984483680
 42      -0.120046109014
 43       0.275107181794
 44      -0.294438407164
 45      -0.277807908288
 46       0.135238089474
 47       0.316493771215
 48      -0.857039144966
 49       0.025115240769
 50      -0.017727525032
 51       0.018565205295
 52       0.019719462659
 53      -0.209860354489
 54      -0.503489716543
 55      -0.536330348214
 56       0.191652901870
 57       0.197744536116
 58      -0.088739138286
 59       0.306368977012
 60       0.347717621458
 61       0.170892414445
 Sym= A
 Ene=        -0.0000000000
 Spin= Alpha
 Occup= -0.0000
  1       0.047804618962
  2      -0.291748161367
  3       0.222742267243
  4       0.326633628720
  5      -0.092730811999
  6       0.035729102153
  7      -0.555589281256
  8      -0.882862334802
  9       0.418585017879
 10       0.036259912121
 11      -0.123303767011
 12      -0.019550419187
 13      -0.034299095212
 14       0.126717773218
 15      -0.197926143154
 16       0.131872844240
 17      -0.048896411412
 18      -0.202157791428
 19      -0.114532875366
 20       0.306825570522
 21      -0.247163704594
 22      -0.605763695004
 23       0.003843866276
 24      -0.487659533651
 25      -0.058436338537
 26       0.076138955986
 27      -0.068528936405
 28       0.055246248897
 29      -0.082568472965
 30       0.589972159720
 31       0.125678892996
 32       0.240436229723
 33       0.462610172563
 34      -0.035270037813
 35       0.194798810295
 36      -0.023101990660
 37      -0.482823083443
 38       0.037549388308
 39      -0.269665975343
 40       0.087598888839
 41       0.263747585410
 42       0.150397036752
 43       0.031032707701
 44      -0.082069907189
 45      -0.629518772609
 46      -0.074156786078
 47      -0.441812443074
 48       0.936568254392
 49      -0.001643551770
 50      -0.111044598886
 51      -0.039515577847
 52       0.038228074102
 53      -0.021816079627
 54      -0.105775876221
 55      -0.363760953887
 56       0.644575141221
 57       0.323423884991
 58       0.225518947885
 59       0.165422817465
 60       0.195000209705
 61       0.161607826209
 Sym= A
 Ene=        -0.0000000000
 Spin= Alpha
 Occup= -0.0000
  1       0.040699516904
  2      -0.417226616061
  3      -0.108939167160
  4       0.023123228410
  5       0.062828037062
  6      -0.451654721461
  7       0.612931585434
  8       0.238766952794
  9       0.431155655010
 10      -0.004827922706
 11      -0.488480405706
 12      -0.192891486915
 13      -0.240053808844
 14       0.081352130148
 15       1.035195609805
 16       0.567064563991
 17      -0.022531744144
 18       0.200161430957
 19       0.006777584013
 20      -0.774581096683
 21       0.089989451204
 22      -0.030365303321
 23       0.149645476815
 24       0.153374545247
 25       0.048993764407
 26       0.316710017550
 27      -0.179726041733
 28      -0.079175913141
 29       0.015241277708
 30      -0.807961955393
 31      -0.115997554873
 32       0.010677170070
 33       0.066897703596
 34      -0.017740216641
 35       0.325875823317
 36       0.115776949518
 37       0.370632103731
 38      -0.015505675703
 39       0.333026203770
 40       0.407799690386
 41       0.287109593265
 42      -0.187072502236
 43      -0.416407885488
 44      -0.428813089592
 45      -0.216508956638
 46       0.150273819434
 47      -0.220138453768
 48       0.320163917788
 49      -0.040011624820
 50      -0.247250587998
 51      -0.172163662966
 52       0.089423290841
 53       0.229510452999
 54       0.954320562078
 55       0.422072652712
 56      -0.325543232917
 57      -0.031508117327
 58       0.057517905021
 59      -0.472553158365
 60       0.060264287105
 61       0.004308544796
 Sym= A
 Ene=        -0.0000000000
 Spin= Alpha
 Occup= -0.0000
  1       0.029786671110
  2      -0.295077302253
  3      -0.107736616593
  4      -0.013354940762
  5      -0.001164416921
  6      -0.054304334613
  7       0.545332619385
  8      -0.713636406836
  9      -0.267451710375
 10      -0.026023232132
 11       0.173524226139
 12      -0.232581504204
 13       0.041387857140
 14      -0.239484836396
 15       0.022642254507
 16       0.165889469388
 17       0.208120051673
 18       0.453437620055
 19       0.164562768648
 20      -0.418643508566
 21      -0.062003577847
 22      -0.187013567448
 23      -0.227282475993
 24       0.128721038135
 25       0.030276101169
 26      -0.276295453395
 27       0.032137989626
 28      -0.041969963338
 29       0.350186536184
 30       0.201414378833
 31      -0.104065034850
 32       0.307988656348
 33       0.119443062212
 34       0.501063963239
 35      -0.133858555822
 36      -0.424852802151
 37       0.333539544986
 38      -0.000026717670
 39      -0.171495930987
 40       0.153272701924
 41       0.076180910824
 42      -0.058002405710
 43       0.284999751568
 44      -0.391035643693
 45      -0.455049868946
 46       0.040782958548
 47      -0.225423024619
 48       0.066373790963
 49      -0.016267687002
 50       0.127841441123
 51       0.011784110580
 52      -0.038211356202
 53      -0.311647660832
 54       0.244980154099
 55      -0.104344268710
 56       0.573045485135
 57       0.296887111910
 58       0.216398364990
 59       0.052152009963
 60      -0.510410434097
 61       0.158672178663
 Sym= A
 Ene=        -0.0000000000
 Spin= Alpha
 Occup= -0.0000
  1      -0.063372523034
  2       0.162179563058
  3       0.199833890894
  4      -0.128539831696
  5      -0.068833914277
  6       0.349324483994
  7      -0.703293736875
  8       0.656136409888
  9       0.138578895740
 10       0.037237570830
 11      -0.061838005075
 12      -0.171400301031
 13      -0.081171791548
 14       0.292485044040
 15      -0.359758685187
 16      -0.008101324403
 17      -0.121649243871
 18      -0.579641105175
 19      -0.190960670412
 20       0.477050923095
 21       0.198109373966
 22       0.239976951082
 23      -0.206754352807
 24      -0.218739932670
 25      -0.043851379003
 26      -0.082579218474
 27      -0.090901796742
 28      -0.287582188548
 29       0.220187044763
 30       0.726894277452
 31      -0.425429508430
 32       0.444958969712
 33       0.391841561587
 34       0.401195004398
 35      -0.125847926681
 36      -0.228820675884
 37       0.079050949618
 38       0.042165468752
 39       0.106020298873
 40       0.002868123187
 41       0.152616070230
 42      -0.107976161252
 43      -0.640354102186
 44      -0.496472284164
 45      -0.223941219469
 46       0.167521976133
 47      -0.209476140437
 48      -0.231213667969
 49       0.024922844693
 50      -0.023824543580
 51       0.347386211093
 52       0.007984183601
 53       0.161654385666
 54      -0.374616100545
 55      -0.133078192020
 56      -0.803937106503
 57      -0.073603665306
 58      -0.201033712496
 59      -0.333525722336
 60      -0.107653238619
 61       0.362901197594
 Sym= A
 Ene=        -0.0000000000
 Spin= Alpha
 Occup= -0.0000
  1      -0.010890522468
  2       0.037724563198
  3      -0.569095029734
  4      -0.204639127794
  5      -0.263566665762
  6       0.488076862355
  7       0.245794903278
  8       0.407045236327
  9       0.001710886122
 10       0.023838577528
 11       0.033370159910
 12      -0.320130271604
 13      -0.118420971318
 14      -0.050946451491
 15      -0.182929988640
 16      -0.074778864025
 17       0.029616353559
 18      -0.169321490138
 19       0.085437853126
 20      -0.328713368591
 21      -0.078919729269
 22      -0.328421693405
 23      -0.000974288322
 24      -0.552848179209
 25      -0.050239374857
 26      -0.033966418307
 27       0.064906393317
 28      -0.073610121730
 29       0.060764340664
 30       1.034821530367
 31       0.167835941584
 32       0.295479400523
 33      -0.024596507792
 34       0.092053225304
 35      -0.323950328506
 36       0.066989134257
 37      -0.610606250944
 38      -0.015879117202
 39       0.232616931483
 40       0.098883931267
 41       0.007654810356
 42      -0.120994510554
 43      -0.329090225569
 44      -0.229277628444
 45       0.060707751074
 46       0.059914025366
 47      -0.149653154005
 48      -0.024965547018
 49      -0.041549604563
 50       0.131452907921
 51      -0.137347096065
 52       0.022505566946
 53      -0.428259872002
 54       0.114985140450
 55       0.021345225442
 56       0.092273109961
 57       0.534359410762
 58      -0.365789339099
 59       0.492031539997
 60       0.383725161608
 61      -0.297127129058
 Sym= A
 Ene=        -0.0000000000
 Spin= Alpha
 Occup= -0.0000
  1       0.003067429868
  2      -0.021299457078
  3      -0.126041239876
  4      -0.294727570726
  5       0.041520016993
  6       0.241284806674
  7       0.105198774257
  8       0.174821519331
  9      -0.265975825436
 10      -0.018516082587
 11       0.335842145992
 12       0.114878885966
 13       0.049906493755
 14      -0.156859267929
 15      -0.412333759530
 16      -0.296092318488
 17       0.046999246556
 18       0.059230392954
 19       0.111507710472
 20       0.505699975990
 21      -0.087414483045
 22      -0.035277332898
 23      -0.139845296437
 24       0.228530863866
 25      -0.030431280676
 26       0.247876845021
 27      -0.246527447569
 28       0.036008600297
 29      -0.275723440982
 30       0.006003645477
 31      -0.391626831243
 32      -0.355903949393
 33       0.094529090880
 34      -0.346063070382
 35      -0.081489319743
 36       0.244006284811
 37       0.242530521111
 38       0.002021063080
 39      -0.132402243492
 40       0.165428347724
 41       0.102696048779
 42      -0.140047604317
 43       0.044114698942
 44      -0.810117880358
 45      -0.223554747328
 46       0.158158679720
 47      -0.583250442785
 48      -0.246525096847
 49       0.014766873710
 50       0.148855707388
 51       0.033481556548
 52       0.056688259496
 53      -0.151643625018
 54      -0.129479829804
 55      -0.491299835080
 56      -0.328808995599
 57       0.020114696257
 58       0.293567905161
 59      -0.594993301788
 60      -0.200989928271
 61       0.118506721022
 Sym= A
 Ene=        -0.0000000000
 Spin= Alpha
 Occup= -0.0000
  1      -0.055801911997
  2      -0.000454266193
  3      -0.096342018228
  4      -0.061210372214
  5       0.017584970039
  6      -0.003582298766
  7      -0.131949779931
  8      -0.638287353763
  9       0.306156809654
 10       0.009374667258
 11       0.000890929744
 12      -0.506609557223
 13      -0.025915205444
 14      -0.024210414916
 15      -0.029447388878
 16       0.433486812439
 17       0.415204490148
 18      -0.185961668168
 19       0.006860388944
 20      -0.008078924765
 21       0.107509305953
 22      -0.029158378775
 23      -0.135866609887
 24       0.178721899858
 25      -0.018498642707
 26      -0.034450461740
 27      -0.008790644237
 28      -0.000000591654
 29       0.031537455249
 30       0.199388227279
 31      -0.020461981592
 32      -0.180573393813
 33      -0.351340646877
 34      -0.212555356269
 35      -0.224293162151
 36       0.313804574517
 37      -0.225203442497
 38      -0.021590970953
 39      -0.110023999138
 40      -0.129055026416
 41      -0.050848744483
 42       0.116963337599
 43       0.429187072730
 44       0.065373955245
 45      -0.147264866455
 46      -0.097860946353
 47      -0.203571373847
 48      -0.034809317457
 49       0.028692309299
 50      -0.132347778643
 51      -0.130933264546
 52      -0.128110693185
 53       0.548486631910
 54      -0.378393969026
 55       0.173215177232
 56       0.304274753401
 57      -0.251233663030
 58      -0.322117790823
 59       0.485873152234
 60      -0.195964399909
 61       0.102630871304
 Sym= A
 Ene=        -0.0000000000
 Spin= Alpha
 Occup= -0.0000
  1       0.013862179185
  2      -0.018772767614
  3       0.149749878576
  4       0.112737210078
  5      -0.050554661975
  6      -0.313839507644
  7      -0.275959005264
  8       0.032325463979
  9      -0.387787016262
 10      -0.007901490992
 11       0.243854409048
 12       0.096002429194
 13       0.177071146455
 14      -0.498149674479
 15      -0.413157221186
 16      -0.146002144451
 17      -0.269379045542
 18       0.496083365027
 19       0.199476330367
 20      -0.045073311340
 21       0.441837547227
 22       0.029675401716
 23       0.046700384080
 24      -0.218638043833
 25       0.006311786830
 26       0.078681283855
 27      -0.207105844863
 28      -0.037774043662
 29       0.024551154008
 30       0.253999842808
 31       0.025376451737
 32       0.178054593943
 33      -0.015603956204
 34       0.262467001213
 35      -0.224969092251
 36       0.387068634462
 37      -0.322491705098
 38       0.023452317661
 39      -0.145786994747
 40       0.299240997027
 41       0.221464791858
 42       0.018043281460
 43       0.066665869540
 44      -0.147910974722
 45      -0.313058134049
 46       0.182706883656
 47       0.196110695252
 48       0.062243537555
 49      -0.011651032166
 50       0.284411666314
 51       0.107906180331
 52      -0.159597207536
 53       0.051838891465
 54      -0.127535025661
 55       0.192878986712
 56      -0.211465971536
 57      -0.472909135366
 58      -0.382958698198
 59       0.193472563017
 60       0.185173394844
 61      -0.056390051058
 Sym= A
 Ene=        -0.0000000000
 Spin= Alpha
 Occup= -0.0000
  1      -0.035307981558
  2       0.198126383151
  3      -0.155555396231
  4       0.344263257472
  5      -0.237362948044
  6      -0.023678007626
  7      -0.445782099806
  8       0.004864128292
  9       0.425398954503
 10       0.052658149730
 11      -0.273299417964
 12      -0.092290576184
 13       0.003236439372
 14      -0.254772249865
 15      -0.007321634849
 16      -0.065023569664
 17      -0.132082574449
 18      -0.057558633574
 19      -0.115867035099
 20       0.131005892175
 21      -0.178057626594
 22      -0.126183197310
 23       0.198324535060
 24       0.529006450946
 25       0.102323370664
 26       0.125361238971
 27      -0.169647419975
 28      -0.129661379458
 29       0.145751014933
 30      -1.574682895962
 31       0.180878376780
 32      -0.083826550502
 33      -0.229405940062
 34       0.195912135461
 35       0.223047337013
 36       0.249991942952
 37       0.457332942399
 38      -0.013499330519
 39      -0.103270132440
 40      -0.113206860127
 41      -0.359901640241
 42       0.246235304418
 43       0.415963889334
 44       0.275630557818
 45       0.534361561391
 46      -0.470537832089
 47      -0.317518870485
 48       0.313702340108
 49      -0.027926937780
 50       0.038415377223
 51       0.002918909346
 52      -0.257953918051
 53      -0.053735030639
 54      -0.006589307710
 55      -0.102316366124
 56       0.115343945360
 57       0.302546090417
 58       0.018527852317
 59      -0.274241329252