[Molden Format]
[Title]
CLPOs

[Atoms] AU
C    1   6          0.0068474504        -0.9365216428         0.1640494123 
O    2   8         -2.0243217906        -1.5708046758        -1.4281137327 
H    3   1          1.2566670382        -1.3697686023         4.0011880576 
H    4   1         -2.0106822934        -0.7337565607         3.6736821221 
H    5   1          2.0079799179         4.5976587003        -1.7187194799 
C    6   6          2.1906415249         2.5512073864        -1.6071838301 
H    7   1          1.8414480511         1.7370385551        -3.4760554044 
H    8   1          4.1120380565         2.0785414090        -0.9964693866 
O    9   8          0.4006588979         1.6872756779         0.1783612680 
H   10   1         -3.4577214660        -0.5943637098        -0.8861718146 
C   11   6         -0.4170911955        -1.7718454196         2.8678619959 
H   12   1         -0.8236018809        -3.7904849199         2.9300152155 
H   13   1          1.6436895948        -1.9020708576        -0.6569779658 
[GTO]
  1 0 
s   3 1.0  
      172.2560000000         0.0617669000 
       25.9109000000         0.3587940000 
        5.5333500000         0.7007130000 
s   2 1.0  
        3.6649800000        -0.3958970000 
        0.7705450000         1.2158400000 
p   2 1.0  
        3.6649800000         0.2364600000 
        0.7705450000         0.8606190000 
s   1 1.0  
        0.1958570000         1.0000000000 
p   1 1.0  
        0.1958570000         1.0000000000 

  2 0 
s   3 1.0  
      322.0370000000         0.0592394000 
       48.4308000000         0.3515000000 
       10.4206000000         0.7076580000 
s   2 1.0  
        7.4029400000        -0.4044530000 
        1.5762000000         1.2215600000 
p   2 1.0  
        7.4029400000         0.2445860000 
        1.5762000000         0.8539550000 
s   1 1.0  
        0.3736840000         1.0000000000 
p   1 1.0  
        0.3736840000         1.0000000000 

  3 0 
s   2 1.0  
        5.4471780000         0.1562850000 
        0.8245470000         0.9046910000 
s   1 1.0  
        0.1831920000         1.0000000000 

  4 0 
s   2 1.0  
        5.4471780000         0.1562850000 
        0.8245470000         0.9046910000 
s   1 1.0  
        0.1831920000         1.0000000000 

  5 0 
s   2 1.0  
        5.4471780000         0.1562850000 
        0.8245470000         0.9046910000 
s   1 1.0  
        0.1831920000         1.0000000000 

  6 0 
s   3 1.0  
      172.2560000000         0.0617669000 
       25.9109000000         0.3587940000 
        5.5333500000         0.7007130000 
s   2 1.0  
        3.6649800000        -0.3958970000 
        0.7705450000         1.2158400000 
p   2 1.0  
        3.6649800000         0.2364600000 
        0.7705450000         0.8606190000 
s   1 1.0  
        0.1958570000         1.0000000000 
p   1 1.0  
        0.1958570000         1.0000000000 

  7 0 
s   2 1.0  
        5.4471780000         0.1562850000 
        0.8245470000         0.9046910000 
s   1 1.0  
        0.1831920000         1.0000000000 

  8 0 
s   2 1.0  
        5.4471780000         0.1562850000 
        0.8245470000         0.9046910000 
s   1 1.0  
        0.1831920000         1.0000000000 

  9 0 
s   3 1.0  
      322.0370000000         0.0592394000 
       48.4308000000         0.3515000000 
       10.4206000000         0.7076580000 
s   2 1.0  
        7.4029400000        -0.4044530000 
        1.5762000000         1.2215600000 
p   2 1.0  
        7.4029400000         0.2445860000 
        1.5762000000         0.8539550000 
s   1 1.0  
        0.3736840000         1.0000000000 
p   1 1.0  
        0.3736840000         1.0000000000 

 10 0 
s   2 1.0  
        5.4471780000         0.1562850000 
        0.8245470000         0.9046910000 
s   1 1.0  
        0.1831920000         1.0000000000 

 11 0 
s   3 1.0  
      172.2560000000         0.0617669000 
       25.9109000000         0.3587940000 
        5.5333500000         0.7007130000 
s   2 1.0  
        3.6649800000        -0.3958970000 
        0.7705450000         1.2158400000 
p   2 1.0  
        3.6649800000         0.2364600000 
        0.7705450000         0.8606190000 
s   1 1.0  
        0.1958570000         1.0000000000 
p   1 1.0  
        0.1958570000         1.0000000000 

 12 0 
s   2 1.0  
        5.4471780000         0.1562850000 
        0.8245470000         0.9046910000 
s   1 1.0  
        0.1831920000         1.0000000000 

 13 0 
s   2 1.0  
        5.4471780000         0.1562850000 
        0.8245470000         0.9046910000 
s   1 1.0  
        0.1831920000         1.0000000000 

[5D]
[9G]
[MO]
 Sym=     1a
 Ene=  0.00000000000000E+00
 Spin= Beta
 Occup= 0.000826
  1       0.074611224787
  2       1.891410415828
  3       0.415056088976
  4      -0.213696455290
  5       0.039100688521
  6      -4.256045865365
  7      -0.881587746926
  8       0.600964378205
  9      -0.460011118591
 10      -0.033167156075
 11       0.042507880824
 12       0.061725917634
 13      -0.009190718490
 14       0.032925916616
 15       0.349723985844
 16       0.242685488607
 17      -0.036478131919
 18       0.136573088119
 19      -0.086131864718
 20      -0.001223380118
 21      -0.020673617404
 22       0.088554732688
 23       0.012585078822
 24       0.072603042713
 25      -0.019866704206
 26      -0.060217819629
 27       0.002066141841
 28       0.007710231507
 29      -0.006437545578
 30       0.223472563393
 31      -0.086745371943
 32      -0.202338338510
 33       0.105561506481
 34      -0.025568663506
 35      -0.037057915903
 36      -0.024796004870
 37      -0.028807733318
 38      -0.029839332258
 39       0.037545912846
 40       0.014758631760
 41      -0.074496363432
 42       0.014628655937
 43       0.374181337752
 44       0.011935811276
 45      -0.322270284554
 46       0.094623316683
 47       0.008862119452
 48       0.058672985037
 49      -0.058245089500
 50      -0.073471392900
 51       0.049066598985
 52       0.030806099314
 53      -0.138219054906
 54       1.383870145627
 55       0.377467489822
 56       0.135270544424
 57      -0.822223047881
 58      -0.068088302356
 59       0.016341059394
 60       0.394657073299
 61       1.129775721209
 Sym=     1a
 Ene=  1.00000000000000E+00
 Spin= Beta
 Occup= 1.994936
  1      -0.034652252321
  2       0.093739968403
  3      -0.221855224226
  4      -0.053312889972
  5      -0.163356916483
  6       0.096312477711
  7      -0.089992208164
  8      -0.009167767790
  9      -0.022862465713
 10      -0.059223901811
 11       0.120497537592
 12       0.247660468218
 13       0.080356229055
 14       0.196597199787
 15       0.400675012565
 16       0.272719334087
 17       0.107532994789
 18       0.239329560496
 19       0.000009597862
 20      -0.001264376796
 21      -0.002351280905
 22      -0.002032130945
 23      -0.000073736967
 24      -0.002184855438
 25       0.000316637785
 26       0.000689989106
 27       0.004058098384
 28      -0.001005589275
 29       0.000304494561
 30      -0.005417894601
 31       0.000970986890
 32       0.003627935547
 33      -0.002893874327
 34      -0.002436071065
 35       0.005275430971
 36       0.002781108643
 37      -0.000359249997
 38       0.002432076438
 39      -0.001279677540
 40       0.013703998916
 41       0.007223466011
 42       0.006691522623
 43      -0.010467322191
 44       0.014699019630
 45       0.014702292799
 46       0.005748189972
 47      -0.045271551566
 48      -0.048313333816
 49       0.007242264038
 50      -0.005863338642
 51       0.022439155165
 52      -0.000386045529
 53       0.028726077130
 54      -0.044361137196
 55       0.000203111510
 56      -0.013956581742
 57       0.050243901777
 58      -0.003516661479
 59      -0.002073084970
 60      -0.019369524720
 61      -0.023427884693
 Sym=     1a
 Ene=  2.00000000000000E+00
 Spin= Beta
 Occup= 0.051094
  1       0.108668467759
  2      -0.206430973203
  3       0.481817961419
  4       0.122085433700
  5       0.361817548716
  6      -0.661338448355
  7       0.538196435343
  8       0.131963356610
  9       0.360336651418
 10      -0.105405438606
 11       0.176868254028
 12       0.329680656259
 13       0.094589029486
 14       0.243564336493
 15       0.634953752813
 16       0.425161768791
 17       0.145593882307
 18       0.351473253526
 19      -0.003554802092
 20       0.000104814487
 21       0.004898872055
 22       0.004134732862
 23       0.000025532901
 24       0.000404639535
 25      -0.000941771232
 26       0.004128168658
 27      -0.009999619562
 28      -0.000604938934
 29      -0.001432413947
 30       0.001111749615
 31      -0.005870427123
 32       0.000443736045
 33      -0.003164226178
 34       0.011708033483
 35      -0.003192936341
 36      -0.007996310258
 37       0.000132064531
 38      -0.005569598414
 39       0.010443509447
 40      -0.052781349458
 41      -0.019120103334
 42      -0.030404111567
 43       0.025105861724
 44      -0.058494698056
 45      -0.017593622532
 46      -0.038273406962
 47       0.022653126765
 48       0.002620486846
 49      -0.007147581288
 50       0.015041586769
 51      -0.064352845520
 52      -0.012909978550
 53      -0.041445526013
 54       0.036952369439
 55      -0.052589910063
 56      -0.005470688424
 57      -0.063674433694
 58       0.006258589265
 59      -0.000940579917
 60       0.024452145617
 61       0.040987745023
 Sym=     1a
 Ene=  3.00000000000000E+00
 Spin= Beta
 Occup= 1.999146
  1      -1.002188252811
  2      -0.069005667742
  3       0.004742986670
  4      -0.006773465953
  5       0.004810806589
  6       0.073264620628
  7       0.007417698895
  8      -0.004157937908
  9       0.004222657063
 10      -0.002002838702
 11       0.000600927708
 12       0.006865257111
 13       0.002856490234
 14       0.004909843006
 15       0.004645017948
 16       0.012848964162
 17       0.004616841899
 18       0.009358879682
 19      -0.001449077335
 20      -0.001349473019
 21      -0.001587613291
 22      -0.001743625813
 23      -0.000668496033
 24      -0.000939125779
 25       0.000286677741
 26      -0.000325749923
 27      -0.000434819736
 28       0.002141461547
 29       0.000556423136
 30       0.001144894681
 31      -0.001405364701
 32       0.003693742383
 33       0.001892049116
 34      -0.000136348438
 35      -0.000365475725
 36      -0.000399831621
 37      -0.000703088771
 38      -0.001884169556
 39       0.000149218128
 40      -0.001832382362
 41      -0.008740882042
 42      -0.001024184232
 43       0.003064560744
 44      -0.003654324680
 45      -0.017152476753
 46      -0.001188559392
 47       0.000299095501
 48       0.000809686988
 49      -0.003907184827
 50      -0.000586824320
 51       0.000114063683
 52       0.002994165724
 53      -0.007637702858
 54       0.015841922886
 55       0.001694383007
 56       0.006953646456
 57      -0.021782230175
 58      -0.001638265513
 59      -0.001670716861
 60       0.005487205220
 61       0.012470214845
 Sym=     1a
 Ene=  4.00000000000000E+00
 Spin= Beta
 Occup= 0.002000
  1      -0.031911762715
  2      -0.474907784635
  3       0.747541448253
  4       0.271670082546
  5      -0.594790993324
  6       1.364101515269
  7      -1.823896155211
  8      -0.573598084236
  9       1.918464048825
 10       0.014966408377
 11      -0.045728695612
 12       0.007408557282
 13       0.020244578989
 14      -0.095317955819
 15      -0.259045638008
 16       0.047400787652
 17       0.065315608230
 18      -0.329774229278
 19      -0.023913315874
 20      -0.142338593655
 21       0.069775307787
 22      -0.025389941583
 23       0.071228391212
 24       0.186214955122
 25      -0.026378128530
 26      -0.050744235435
 27       0.010740396329
 28      -0.027441989761
 29      -0.009314606994
 30       0.121999574555
 31      -0.074186818566
 32      -0.433856998318
 33       0.043223759598
 34      -0.039288933866
 35       0.041564582662
 36      -0.021681488559
 37      -0.018295964832
 38       0.010024305767
 39       0.006506682208
 40       0.037752637175
 41      -0.010426069115
 42      -0.034767592904
 43      -0.051015009635
 44       0.196518604191
 45       0.033945769543
 46      -0.164795665890
 47      -0.072412659749
 48      -0.137434766343
 49       0.044646521054
 50       0.001557963461
 51       0.028590511491
 52      -0.052475783664
 53       0.162487122667
 54      -1.537085844378
 55       0.259825812094
 56      -0.229874220579
 57       0.952882161553
 58       0.052329362065
 59      -0.033416143775
 60       0.185319808633
 61       0.576264605189
 Sym=     1a
 Ene=  5.00000000000000E+00
 Spin= Beta
 Occup= 0.004639
  1       0.009294367919
  2       0.658600606248
  3      -0.344082527052
  4       0.829156418223
  5      -0.202270024985
  6      -0.967416905115
  7       0.840822964870
  8      -1.843750163423
  9       0.342398021728
 10      -0.018242130446
 11       0.042188119386
 12       0.030062602681
 13       0.084903911994
 14       0.009745568210
 15       0.259971330739
 16       0.100114722490
 17       0.282254221814
 18       0.033474879788
 19      -0.003518171230
 20       0.022048746025
 21      -0.088465156851
 22      -0.115645962375
 23       0.028975772448
 24       0.095046421667
 25      -0.027769684917
 26      -0.044890393965
 27      -0.021532219163
 28      -0.020197686032
 29       0.025950338891
 30       0.298722312895
 31      -0.152610572081
 32      -0.316655562605
 33       0.128754672698
 34      -0.036938135252
 35       0.037799280501
 36      -0.027662357479
 37      -0.016525927216
 38      -0.036789336403
 39       0.104169225123
 40      -0.074528279582
 41      -0.080024031481
 42       0.003001942213
 43       0.590765463744
 44      -0.307307905882
 45      -0.225716254628
 46       0.034884730509
 47       0.081821669396
 48       0.163961533659
 49      -0.009320789291
 50      -0.043414758702
 51      -0.035973230379
 52       0.056904828804
 53       0.019732576497
 54      -0.034591007208
 55      -0.276582988098
 56       0.487451060900
 57       0.092776984559
 58       0.049925967379
 59       0.081793284810
 60      -0.111860998968
 61      -0.412632117981
 Sym=     1a
 Ene=  6.00000000000000E+00
 Spin= Beta
 Occup= 0.008283
  1       0.006196475871
  2      -0.203615405437
  3       0.434943519201
  4       0.417977336187
  5       0.734366785760
  6       0.149162647292
  7      -0.717886709916
  8      -0.844897441409
  9      -1.747045242182
 10       0.038170484400
 11      -0.122392520717
 12      -0.100804918298
 13       0.015865454502
 14      -0.006743816266
 15      -0.573680160067
 16      -0.277406977129
 17       0.079123288476
 18       0.050351716515
 19      -0.063418006393
 20      -0.047003710953
 21       0.002615653058
 22       0.055602357783
 23      -0.000159341003
 24       0.004666873101
 25      -0.003772040051
 26       0.007193997586
 27      -0.018076725717
 28      -0.012067607719
 29       0.004462485232
 30       0.082409850544
 31       0.013528033884
 32      -0.024875278073
 33       0.029174556302
 34      -0.003418656208
 35      -0.100876920619
 36      -0.012219614746
 37       0.042146037419
 38      -0.013239389320
 39       0.053133585900
 40       0.019814522122
 41      -0.032027881137
 42       0.067577509500
 43       0.251628282413
 44       0.068100968514
 45      -0.062188209632
 46       0.230924676490
 47      -0.111101174878
 48      -0.123217406175
 49      -0.010137234771
 50       0.028157328706
 51       0.047025149977
 52       0.068945910969
 53      -0.042998120906
 54       0.582540748793
 55       0.364661769210
 56       0.420687194615
 57      -0.171334641785
 58       0.053724463843
 59       0.092151847279
 60      -0.087987234787
 61      -0.316084243212
 Sym=     1a
 Ene=  7.00000000000000E+00
 Spin= Beta
 Occup= 1.984974
  1      -0.050709116393
  2       0.121196195095
  3       0.275796141307
  4      -0.155371368239
  5      -0.146615871574
  6       0.330243568687
  7       0.188796269832
  8      -0.102550323237
  9      -0.057077653035
 10       0.006683603232
 11      -0.007997694274
 12      -0.038499078373
 13       0.009681518630
 14       0.001946737740
 15      -0.026475988191
 16      -0.044435125351
 17       0.005872018186
 18      -0.008068633536
 19      -0.007851598294
 20      -0.006309252617
 21       0.000075007239
 22      -0.000683761287
 23      -0.002175405678
 24       0.010444921442
 25       0.005850016707
 26      -0.012877728012
 27       0.007849745548
 28       0.035245349259
 29      -0.010449757545
 30      -0.014611630486
 31       0.006027473664
 32       0.000617670157
 33      -0.005017129197
 34      -0.012349038796
 35      -0.002477303077
 36      -0.009654011678
 37      -0.005259736099
 38       0.005496899462
 39      -0.007259721440
 40      -0.015662343061
 41       0.026467913169
 42       0.006111749058
 43      -0.030009097992
 44      -0.013681194765
 45       0.037778580153
 46       0.005775208559
 47      -0.004793341291
 48      -0.009347913518
 49       0.012727568323
 50      -0.014291522997
 51      -0.042485156682
 52       0.011756797638
 53       0.044820688010
 54      -0.081899135641
 55      -0.028288979570
 56      -0.016246428098
 57       0.084773530604
 58      -0.007239764450
 59      -0.005038515039
 60       0.317959883808
 61       0.233461797807
 Sym=     1a
 Ene=  8.00000000000000E+00
 Spin= Beta
 Occup= 0.028801
  1      -0.112293846658
  2       0.165746516571
  3       0.432408756755
  4      -0.257133465485
  5      -0.233290619055
  6       0.884275611839
  7       0.558033421495
  8      -0.310508795611
  9      -0.258233041856
 10       0.007927915793
 11      -0.011508772212
 12      -0.049881546835
 13       0.018622643184
 14       0.011419184913
 15      -0.045881296954
 16      -0.075509854325
 17       0.021291190410
 18       0.007770250411
 19       0.008182477433
 20       0.007002532818
 21       0.005609461622
 22      -0.007157804525
 23      -0.002078805417
 24      -0.005480263052
 25       0.003014377384
 26      -0.003888874378
 27       0.010090755217
 28       0.000963863768
 29      -0.003212659794
 30      -0.001569092280
 31       0.007160377937
 32       0.011617064276
 33      -0.003142466892
 34       0.003735283121
 35      -0.000512307928
 36       0.009706657340
 37      -0.000943926345
 38       0.005372224222
 39      -0.007131480058
 40      -0.045633839380
 41       0.029601021746
 42       0.021709543633
 43      -0.032294405661
 44      -0.050805768864
 45       0.049714019868
 46       0.023618527098
 47       0.008048304407
 48      -0.001009648607
 49       0.007404849889
 50      -0.001794848601
 51      -0.046493102072
 52       0.028647423347
 53       0.016841362570
 54      -0.069023956720
 55      -0.074132406408
 56       0.022256485437
 57       0.067088930679
 58       0.005377659685
 59       0.004627201798
 60      -0.811436446374
 61      -0.805776088261
 Sym=     1a
 Ene=  9.00000000000000E+00
 Spin= Beta
 Occup= 1.992322
  1       0.033969537882
  2      -0.089032510005
  3      -0.035199405176
  4      -0.279832207179
  5       0.004656313306
  6      -0.106537907236
  7      -0.024538930983
  8      -0.086474539588
  9       0.003250209870
 10      -0.002058737350
 11       0.000640119528
 12       0.004986175726
 13       0.014631376623
 14       0.000141905264
 15       0.008975034243
 16       0.009452468292
 17       0.013821351461
 18       0.004574343842
 19       0.003074590337
 20       0.002551950056
 21       0.003492025828
 22       0.002678806608
 23      -0.003269426725
 24      -0.009518938837
 25      -0.013796330709
 26       0.012162815729
 27      -0.024459005177
 28      -0.047717084728
 29       0.018538917441
 30       0.063658741767
 31      -0.045843282149
 32      -0.035839894310
 33       0.042859671806
 34       0.002991275205
 35       0.001526435742
 36       0.002575444419
 37      -0.001259151236
 38       0.059671401514
 39      -0.120129230169
 40       0.044916853431
 41       0.329269475481
 42       0.003656491337
 43      -0.409131185970
 44       0.028618991967
 45       0.374959368842
 46       0.024599215212
 47       0.004125741585
 48       0.000805703125
 49      -0.007882409719
 50       0.004923065336
 51       0.007695755378
 52       0.036093691511
 53      -0.013405387393
 54       0.037404049175
 55       0.008118554881
 56       0.019808727258
 57      -0.044257034624
 58      -0.000467813363
 59      -0.001097094572
 60       0.016476989484
 61       0.044069584217
 Sym=     1a
 Ene=  1.00000000000000E+01
 Spin= Beta
 Occup= 0.053703
  1       0.106609581337
  2      -0.205714835912
  3      -0.071896544789
  4      -0.617703423191
  5      -0.001403610376
  6      -0.660754536478
  7      -0.120445398636
  8      -0.645031008423
  9       0.016504917308
 10      -0.003910354331
 11       0.007997215189
 12       0.011162605445
 13       0.060786515123
 14       0.000354169337
 15       0.013447273189
 16       0.010746602887
 17       0.064187590619
 18      -0.006383375541
 19       0.007200321506
 20      -0.001696961050
 21       0.007703953158
 22       0.002018202574
 23       0.004218383373
 24      -0.010239914601
 25      -0.003924151379
 26       0.028036716636
 27      -0.023342932322
 28      -0.014911462078
 29       0.027107463104
 30       0.006321392419
 31      -0.016972907226
 32       0.043047654407
 33       0.019662808654
 34       0.024523192999
 35       0.020648483969
 36       0.016418991250
 37       0.012706822208
 38      -0.101781127410
 39       0.168333003430
 40      -0.079192370258
 41      -0.419218413551
 42       0.010632503319
 43       0.622401723457
 44      -0.070045230807
 45      -0.576739655663
 46      -0.011982608834
 47       0.015039254053
 48      -0.001494988526
 49      -0.006449396511
 50       0.014874176297
 51       0.007658461050
 52       0.074826365682
 53      -0.002727887110
 54       0.031607744586
 55       0.017261276878
 56       0.064920289446
 57      -0.023604335562
 58      -0.006070438589
 59      -0.002745310408
 60       0.019416195438
 61       0.071055714607
 Sym=     1a
 Ene=  1.10000000000000E+01
 Spin= Beta
 Occup= 1.991376
  1       0.044708842795
  2      -0.145394299424
  3       0.054684585926
  4       0.096218558114
  5      -0.309641131033
  6      -0.245737807692
  7       0.033826041381
  8       0.055351707450
  9      -0.162891584141
 10      -0.005864796833
 11       0.007936531149
 12       0.007091102508
 13      -0.004330063903
 14       0.030200955907
 15       0.027326914166
 16       0.016824760605
 17      -0.001552719735
 18       0.029006929063
 19       0.039548692096
 20       0.064862482239
 21       0.037344988871
 22       0.057550350851
 23       0.002880781154
 24       0.009165257418
 25       0.000197322288
 26      -0.002595502823
 27       0.000363505453
 28       0.008472692103
 29       0.002564258843
 30       0.002821739692
 31      -0.005955148250
 32      -0.013742904303
 33       0.008744753005
 34      -0.006195034881
 35       0.004148345745
 36      -0.001441803439
 37      -0.003268984652
 38      -0.006366534782
 39       0.007761246236
 40      -0.009404560567
 41      -0.025276309786
 42       0.025725614071
 43       0.023419927021
 44      -0.010176887143
 45      -0.031903372755
 46       0.019395116650
 47       0.011964604455
 48       0.003590668462
 49       0.043546966067
 50      -0.128554207375
 51      -0.043144218606
 52      -0.091191516926
 53       0.289340380954
 54      -0.312650747101
 55      -0.041812461024
 56      -0.056630267247
 57       0.203476826419
 58       0.039669340523
 59       0.064958617511
 60       0.042014822982
 61       0.056502421726
 Sym=     1a
 Ene=  1.20000000000000E+01
 Spin= Beta
 Occup= 0.025912
  1       0.110809806424
  2      -0.262340945802
  3       0.106224806963
  4       0.170774069777
  5      -0.567415209332
  6      -0.752918997390
  7       0.092329410019
  8       0.178032584419
  9      -0.582929597816
 10      -0.002199495025
 11       0.004825621182
 12      -0.008805183946
 13      -0.013490469086
 14       0.049082146447
 15       0.003214462138
 16      -0.008857045782
 17      -0.016227323453
 18       0.044526195917
 19       0.001726398782
 20      -0.043840084440
 21       0.004630569711
 22      -0.040759077557
 23      -0.002131061124
 24       0.004052595881
 25       0.003286868421
 26      -0.007778272908
 27       0.009372461528
 28       0.029060239756
 29       0.003003544762
 30      -0.002361239066
 31      -0.003161267867
 32       0.001197604728
 33       0.006011793252
 34      -0.020326205294
 35      -0.000627173900
 36      -0.000104072092
 37      -0.003756055175
 38      -0.004513439361
 39       0.009958460024
 40      -0.010153278019
 41      -0.024534146666
 42       0.039124807834
 43       0.015514723935
 44      -0.007037739587
 45      -0.023456446146
 46       0.045137587602
 47       0.006215629350
 48      -0.000874505540
 49      -0.109187323530
 50       0.256563696211
 51       0.086951567614
 52       0.171904619530
 53      -0.570932247052
 54       0.765271903933
 55       0.097375936895
 56       0.178529379949
 57      -0.576167441327
 58       0.002534422867
 59      -0.039487045586
 60       0.004234506036
 61       0.039644679312
 Sym=     1a
 Ene=  1.30000000000000E+01
 Spin= Beta
 Occup= 0.000742
  1      -0.071963980564
  2      -0.297501615116
  3      -0.092456146115
  4      -0.007060495518
  5      -0.031491936833
  6       1.619341517311
  7      -0.449223772462
  8      -0.330204233081
  9      -0.960383357162
 10      -0.036513049224
 11       1.103286831879
 12       0.704622266583
 13      -0.176417725682
 14      -0.289600291398
 15      -1.742272953123
 16      -1.397510537398
 17       0.118789424094
 18       0.022113430709
 19      -0.045285661193
 20      -0.041792862905
 21       0.029367179587
 22       0.024150104271
 23      -0.003054126291
 24      -0.048147772379
 25       0.008920598536
 26       0.062441887985
 27      -0.014975301540
 28      -0.026680318245
 29       0.002846345226
 30      -0.137909965628
 31       0.013849952875
 32       0.127969708884
 33      -0.059662156827
 34       0.030483166985
 35      -0.052928593190
 36       0.005103901817
 37       0.092794597951
 38       0.006785399791
 39       0.042310435622
 40      -0.024973618156
 41      -0.011757159954
 42      -0.009007109938
 43      -0.124667444044
 44       0.158268571161
 45       0.147680168292
 46       0.154468803987
 47      -0.158563900334
 48      -0.218013661605
 49       0.009508856654
 50       0.051012943217
 51      -0.011604662770
 52      -0.004267431656
 53       0.007863621407
 54      -0.072662535189
 55       0.235821533218
 56       0.194954026870
 57       0.121779398891
 58       0.057985254485
 59       0.082971028102
 60      -0.217323864437
 61      -0.278289602675
 Sym=     1a
 Ene=  1.40000000000000E+01
 Spin= Beta
 Occup= 1.990274
  1       0.015330781801
  2      -0.009627425958
  3       0.056098523670
  4      -0.021217251834
  5      -0.001404559211
  6      -0.076157852647
  7       0.100890053464
  8       0.000757600800
  9       0.054163081122
 10      -0.052811819876
 11       0.100234204284
 12      -0.300262092299
 13       0.186384326524
 14       0.094932547521
 15       0.288684849438
 16      -0.275114127267
 17       0.198872352016
 18       0.121593013074
 19      -0.000139044493
 20       0.001270247598
 21      -0.001504431652
 22      -0.000517722486
 23       0.000348606340
 24       0.002118893110
 25       0.000232511167
 26      -0.000782726364
 27       0.000773691769
 28       0.003299599388
 29      -0.000809927749
 30      -0.003371902332
 31      -0.000482209259
 32      -0.002112604701
 33      -0.000756834742
 34       0.000416306205
 35       0.002755383317
 36      -0.000511013891
 37      -0.002442449563
 38      -0.001239065572
 39       0.004796725495
 40      -0.008692311583
 41      -0.006161922341
 42       0.002519296005
 43       0.002370280548
 44      -0.005315812029
 45      -0.000945287402
 46      -0.009327705741
 47       0.286214308799
 48       0.179163069409
 49       0.000941559528
 50       0.001943854713
 51      -0.003508326723
 52       0.006315584335
 53       0.004822980360
 54      -0.009721776252
 55      -0.009295229256
 56      -0.018400321153
 57       0.001215383993
 58      -0.002597170267
 59      -0.006830990280
 60       0.000171462521
 61       0.002470388084
 Sym=     1a
 Ene=  1.50000000000000E+01
 Spin= Beta
 Occup= 0.008742
  1      -0.005122245093
  2       0.021003847517
  3      -0.019799424870
  4      -0.005572328804
  5      -0.019143361536
  6       0.007697034854
  7      -0.008796847618
  8      -0.027976649977
  9      -0.037217049373
 10      -0.092501750719
 11       0.143959483697
 12      -0.377338947377
 13       0.214723238253
 14       0.095497935961
 15       0.532256542309
 16      -0.471526644000
 17       0.308220956464
 18       0.165245134173
 19       0.003648590335
 20       0.000670216595
 21       0.012932707177
 22       0.004769137119
 23      -0.000476818172
 24       0.000758445422
 25      -0.000433001274
 26      -0.001476038079
 27      -0.001957963920
 28       0.001030570471
 29       0.001689430182
 30       0.007229533914
 31      -0.003772586651
 32      -0.003258999775
 33       0.003692625421
 34       0.000063429403
 35       0.002055888626
 36       0.000720649196
 37      -0.001724252055
 38      -0.001901925377
 39       0.001473541889
 40      -0.004814200988
 41       0.000239472669
 42       0.003310444705
 43       0.016773658574
 44      -0.012686306824
 45      -0.007525906372
 46       0.004567253635
 47      -0.800321105257
 48      -0.615275119154
 49      -0.001831115276
 50      -0.000931419605
 51      -0.004001410804
 52       0.004396747443
 53      -0.012209467438
 54       0.020096904050
 55      -0.008792429506