[Molden Format]
[Title]
 created by molden2molden from p.molden

[Atoms] AU
C    1   6          0.0068474504        -0.9365216428         0.1640494123 
O    2   8         -2.0243217906        -1.5708046758        -1.4281137327 
H    3   1          1.2566670382        -1.3697686023         4.0011880576 
H    4   1         -2.0106822934        -0.7337565607         3.6736821221 
H    5   1          2.0079799179         4.5976587003        -1.7187194799 
C    6   6          2.1906415249         2.5512073864        -1.6071838301 
H    7   1          1.8414480511         1.7370385551        -3.4760554044 
H    8   1          4.1120380565         2.0785414090        -0.9964693866 
O    9   8          0.4006588979         1.6872756779         0.1783612680 
H   10   1         -3.4577214660        -0.5943637098        -0.8861718146 
C   11   6         -0.4170911955        -1.7718454196         2.8678619959 
H   12   1         -0.8236018809        -3.7904849199         2.9300152155 
H   13   1          1.6436895948        -1.9020708576        -0.6569779658 
[GTO]
  1 0 
s   3 1.0  
      172.2560000000         0.0617669000 
       25.9109000000         0.3587940000 
        5.5333500000         0.7007130000 
s   2 1.0  
        3.6649800000        -0.3958970000 
        0.7705450000         1.2158400000 
p   2 1.0  
        3.6649800000         0.2364600000 
        0.7705450000         0.8606190000 
s   1 1.0  
        0.1958570000         1.0000000000 
p   1 1.0  
        0.1958570000         1.0000000000 

  2 0 
s   3 1.0  
      322.0370000000         0.0592394000 
       48.4308000000         0.3515000000 
       10.4206000000         0.7076580000 
s   2 1.0  
        7.4029400000        -0.4044530000 
        1.5762000000         1.2215600000 
p   2 1.0  
        7.4029400000         0.2445860000 
        1.5762000000         0.8539550000 
s   1 1.0  
        0.3736840000         1.0000000000 
p   1 1.0  
        0.3736840000         1.0000000000 

  3 0 
s   2 1.0  
        5.4471780000         0.1562850000 
        0.8245470000         0.9046910000 
s   1 1.0  
        0.1831920000         1.0000000000 

  4 0 
s   2 1.0  
        5.4471780000         0.1562850000 
        0.8245470000         0.9046910000 
s   1 1.0  
        0.1831920000         1.0000000000 

  5 0 
s   2 1.0  
        5.4471780000         0.1562850000 
        0.8245470000         0.9046910000 
s   1 1.0  
        0.1831920000         1.0000000000 

  6 0 
s   3 1.0  
      172.2560000000         0.0617669000 
       25.9109000000         0.3587940000 
        5.5333500000         0.7007130000 
s   2 1.0  
        3.6649800000        -0.3958970000 
        0.7705450000         1.2158400000 
p   2 1.0  
        3.6649800000         0.2364600000 
        0.7705450000         0.8606190000 
s   1 1.0  
        0.1958570000         1.0000000000 
p   1 1.0  
        0.1958570000         1.0000000000 

  7 0 
s   2 1.0  
        5.4471780000         0.1562850000 
        0.8245470000         0.9046910000 
s   1 1.0  
        0.1831920000         1.0000000000 

  8 0 
s   2 1.0  
        5.4471780000         0.1562850000 
        0.8245470000         0.9046910000 
s   1 1.0  
        0.1831920000         1.0000000000 

  9 0 
s   3 1.0  
      322.0370000000         0.0592394000 
       48.4308000000         0.3515000000 
       10.4206000000         0.7076580000 
s   2 1.0  
        7.4029400000        -0.4044530000 
        1.5762000000         1.2215600000 
p   2 1.0  
        7.4029400000         0.2445860000 
        1.5762000000         0.8539550000 
s   1 1.0  
        0.3736840000         1.0000000000 
p   1 1.0  
        0.3736840000         1.0000000000 

 10 0 
s   2 1.0  
        5.4471780000         0.1562850000 
        0.8245470000         0.9046910000 
s   1 1.0  
        0.1831920000         1.0000000000 

 11 0 
s   3 1.0  
      172.2560000000         0.0617669000 
       25.9109000000         0.3587940000 
        5.5333500000         0.7007130000 
s   2 1.0  
        3.6649800000        -0.3958970000 
        0.7705450000         1.2158400000 
p   2 1.0  
        3.6649800000         0.2364600000 
        0.7705450000         0.8606190000 
s   1 1.0  
        0.1958570000         1.0000000000 
p   1 1.0  
        0.1958570000         1.0000000000 

 12 0 
s   2 1.0  
        5.4471780000         0.1562850000 
        0.8245470000         0.9046910000 
s   1 1.0  
        0.1831920000         1.0000000000 

 13 0 
s   2 1.0  
        5.4471780000         0.1562850000 
        0.8245470000         0.9046910000 
s   1 1.0  
        0.1831920000         1.0000000000 

[5D]
[9G]
[MO]
 Sym=     1a
 Ene= -0.00000000000000E+00
 Spin= Alpha
 Occup=-0.000000
  1       0.051345861723
  2       0.379568191903
  3       0.083767092273
  4       0.034563243302
  5      -0.148136841829
  6      -1.219228392873
  7       0.093000202024
  8      -0.287332767239
  9       0.812234141515
 10      -0.016873247684
 11      -0.150743775371
 12      -0.236714599625
 13       0.073165587649
 14       0.113570001324
 15       0.576049160699
 16       0.660359581034
 17       0.018147299483
 18      -0.063918064086
 19      -0.025656533874
 20       0.352501406191
 21       0.013449038597
 22      -0.067602600999
 23      -0.411795807147
 24       0.540698620179
 25      -0.038274795592
 26      -1.531947187596
 27      -0.097777687715
 28       0.175632322208
 29       0.127370690493
 30       2.947478534508
 31      -0.084121045191
 32      -1.011347439003
 33       0.051176626560
 34      -0.231353032158
 35      -0.783214155321
 36      -0.172042202542
 37      -0.731321720485
 38       0.022708785185
 39       0.084645327961
 40       0.196194629425
 41       0.101936801449
 42      -0.013420665888
 43      -0.496484837572
 44      -0.652772944402
 45      -0.441623194970
 46       0.249247840734
 47       0.111818432478
 48       0.139273909195
 49       0.008364008798
 50      -0.057226534409
 51      -0.016770216527
 52       0.031704785566
 53      -0.007267020034
 54      -0.316487215040
 55      -0.229413799907
 56      -0.076518640254
 57      -0.107022229277
 58      -0.103742927720
 59       0.112090593378
 60       0.253591910133
 61      -0.060962690837
 Sym=     1a
 Ene= -0.00000000000000E+00
 Spin= Alpha
 Occup=-0.000000
  1      -0.107379709963
  2      -0.696263689772
  3       0.093878060921
  4       0.209967336425
  5       0.029920200881
  6       3.170533117682
  7      -0.844677575123
  8      -1.302367705099
  9       0.154883396977
 10       0.026190586463
 11       0.284589911870
 12       0.213988399681
 13      -0.050099023264
 14      -0.130939668416
 15      -1.126727165205
 16      -0.823642164636
 17       0.172874776896
 18      -0.255499361588
 19      -0.013393935106
 20      -0.821676199037
 21      -0.019843476403
 22       0.064745886927
 23      -0.173421633292
 24       0.931653981166
 25       0.019149006558
 26      -0.225858942834
 27       0.041867523146
 28       0.074017890238
 29      -0.008168572351
 30      -0.052123577702
 31      -0.216394148672
 32      -0.792883257469
 33      -0.308483862217
 34      -0.121669310841
 35      -0.378365370937
 36      -0.012188940493
 37       0.209984059868
 38      -0.019526292706
 39       0.272599156967
 40      -0.043059528659
 41      -0.043655232329
 42      -0.103513587031
 43      -0.236991117884
 44       0.245214896448
 45       0.177276321038
 46       0.225582566230
 47      -0.231361122098
 48      -0.084610953403
 49       0.024819245932
 50       0.002435079011
 51      -0.068740642394
 52      -0.194150502802
 53      -0.109995734133
 54      -0.573751751387
 55       0.533134235060
 56       0.022064109094
 57       1.609965124196
 58       0.167168988108
 59      -0.405321461641
 60      -0.103810194837
 61      -0.833658296486
 Sym=     1a
 Ene= -0.00000000000000E+00
 Spin= Alpha
 Occup=-0.000000
  1       0.019108874135
  2       0.211291216173
  3       0.443777152791
  4       0.082287756976
  5      -0.220794285233
  6      -0.654918598112
  7      -2.098542168479
  8       0.311416338145
  9       0.612118715318
 10      -0.030646891033
 11       0.509520885602
 12       0.035014494764
 13       0.046214750637
 14       0.047920389398
 15      -0.746197338889
 16      -0.132492152833
 17      -0.121131900813
 18      -0.311932527124
 19      -0.021921760794
 20      -0.788436164949
 21      -0.041588971900
 22       0.079245216361
 23       0.127520893038
 24      -0.777445041168
 25      -0.041571298593
 26      -0.510325419081
 27       0.101767705775
 28      -0.042768197240
 29      -0.080174147489
 30       1.415417421008
 31      -0.030008494995
 32       0.206552345593
 33      -0.391026849012
 34      -0.107842701697
 35      -0.559589657958
 36       0.054774269654
 37      -0.324179923172
 38       0.002088488506
 39      -0.032220768387
 40      -0.125458844340
 41      -0.027039045051
 42       0.000744230719
 43       0.036414961336
 44       0.565305502390
 45       0.023818207492
 46      -0.101238362146
 47       0.163763232717
 48      -0.450657604933
 49      -0.002083989141
 50      -0.209886636833
 51      -0.094240424484
 52       0.015351381079
 53      -0.118356513062
 54       0.073773767582
 55       0.895436213972
 56       0.185056737604
 57       0.563006641285
 58      -0.033111323073
 59       0.368514505982
 60       0.020054903357
 61       1.801619748996
 Sym=     1a
 Ene= -0.00000000000000E+00
 Spin= Alpha
 Occup=-0.000000
  1       0.032232374617
  2       0.098531455609
  3       0.080644420591
  4       0.031586620558
  5       0.110202020587
  6      -0.911790861646
  7      -0.315434659909
  8       0.174745934550
  9      -1.868133723779
 10      -0.027412950970
 11       0.792593569707
 12       0.355850599956
 13      -0.054698198331
 14       0.046801344477
 15      -1.268609131488
 16      -0.745576317425
 17      -0.019312507361
 18      -0.034974583696
 19      -0.186026747666
 20       0.748021280790
 21       0.144134131417
 22      -0.077644957120
 23      -0.208071872452
 24       0.758411251359
 25       0.023661820193
 26       0.101613200014
 27      -0.127029328621
 28      -0.007752468833
 29       0.009175378083
 30      -0.433349414103
 31      -0.004896644594
 32      -0.293732900219
 33       0.018703560115
 34       0.034155318749
 35      -0.181685260718
 36       0.006680241075
 37       0.107744679084
 38      -0.006146329420
 39       0.232874646465
 40      -0.012579877136
 41      -0.019564722265
 42      -0.126822640649
 43      -0.255573505541
 44       0.038548961451
 45       0.018987569071
 46       0.428961307371
 47      -0.104994734451
 48      -0.035054741657
 49      -0.013389391554
 50      -0.185571083202
 51       0.090735954379
 52       0.094357922414
 53       0.161082294901
 54       1.036309794551
 55       0.035630885132
 56       0.432666535640
 57      -1.501443273018
 58       0.169946833771
 59       0.085812264374
 60      -0.205616411403
 61       0.113523693981
 Sym=     1a
 Ene= -0.00000000000000E+00
 Spin= Alpha
 Occup=-0.000000
  1      -0.005807541797
  2      -0.429404413101
  3      -0.160380837033
  4       0.047215394139
  5       0.215417754765
  6       0.602605650723
  7       0.704973159707
  8      -0.142776258100
  9      -1.036980605394
 10       0.038242049629
 11      -0.501435892874
 12       0.172311042120
 13      -0.087049881175
 14      -0.096753951908
 15       0.378931830947
 16      -0.508961569846
 17       0.207824631954
 18       0.271559784808
 19      -0.023594253917
 20      -0.022066118770
 21       0.065709138026
 22      -0.083644918395
 23       0.176960925097
 24      -1.229847668329
 25      -0.036605386149
 26      -0.797899780851
 27       0.007999855296
 28      -0.388523647492
 29      -0.099483942141
 30       2.117367689901
 31      -0.068764247549
 32       0.773536616549
 33      -0.400086114641
 34      -0.108953598874
 35      -0.811701248995
 36       0.159752541854
 37      -0.425659216308
 38       0.025210624550
 39      -0.120700487665
 40      -0.236685042414
 41      -0.100637663427
 42       0.166885300202
 43      -0.111262849168
 44       0.165036831343
 45       0.141137310255
 46       0.084913011262
 47      -0.327486001763
 48      -0.027483072374
 49       0.014575480879
 50      -0.141386703712
 51       0.073862848739
 52       0.090466198901
 53       0.063560782365
 54       0.483705967183
 55      -0.019579417167
 56       0.412593635785
 57      -0.370575775335
 58       0.226080318691
 59       0.161763115585
 60      -0.242321635547
 61      -0.567165548821
 Sym=     1a
 Ene= -0.00000000000000E+00
 Spin= Alpha
 Occup=-0.000000
  1      -0.010712640214
  2      -0.108267513814
  3       0.398440359757
  4       0.142772686752
  5      -0.157788229068
  6       0.376059877037
  7      -0.804952369711
  8      -0.247037435709
  9      -0.016230406778
 10       0.023308022374
 11      -0.045730140915
 12      -0.218044061984
 13       0.042792080154
 14       0.055662466013
 15      -0.297040072878
 16       0.151836700519
 17      -0.083099327133
 18      -0.288537824969
 19      -0.200670308908
 20       0.814073299799
 21       0.272883267136
 22      -0.261226287537
 23       0.330936737599
 24       0.057315621066
 25       0.011482942634
 26       0.163066104029
 27       0.146624712697
 28       0.142933217881
 29      -0.226571896007
 30      -0.697539841302
 31      -0.239053604432
 32      -0.442851851413
 33      -0.378786383255
 34      -0.178886180053
 35      -0.188445622806
 36      -0.085756809366
 37       0.653055597646
 38       0.007417225160
 39      -0.384856541396
 40      -0.072847018289
 41       0.141839078352
 42       0.155760241253
 43       0.623966743325
 44       0.456651669658
 45       0.053971271023
 46      -0.227354885039
 47       0.111789433853
 48      -0.155392384256
 49       0.007633485583
 50      -0.013206872834
 51       0.191110834586
 52      -0.158473773061
 53       0.074562595302
 54      -0.464793518869
 55      -0.203375117742
 56       0.142813480312
 57      -0.387156645434
 58      -0.099567072705
 59       0.181407801895
 60       0.631512321468
 61      -0.811454668784
 Sym=     1a
 Ene= -0.00000000000000E+00
 Spin= Alpha
 Occup=-0.000000
  1      -0.015577672924
  2      -0.158154952871
  3       0.174993518024
  4      -0.128450056607
  5       0.028106820478
  6       0.484554015707
  7       0.459912642693
  8       0.706982298657
  9      -0.238799764756
 10       0.003512604300
 11      -0.231092620907
 12      -0.076552549813
 13       0.054751272525
 14       0.095942288114
 15       0.378432011051
 16       0.162552633643
 17      -0.061660775111
 18       0.048284146707
 19       0.146462626108
 20      -0.346879055495
 21       0.097325669896
 22      -0.445821881796
 23      -0.088457718828
 24       0.208494700226
 25       0.035190364402
 26       0.171819398449
 27       0.002124796109
 28      -0.052227883132
 29      -0.062918827171
 30      -0.606063217435
 31       0.627367007037
 32       0.147796579244
 33      -0.656994346860
 34      -0.170519699973
 35      -0.099723934346
 36      -0.086510468112
 37      -0.004487492188
 38      -0.066885724794
 39       0.557850431880
 40       0.155208801071
 41      -0.318725265919
 42      -0.239415736382
 43      -0.342078442558
 44       0.170452575645
 45       0.856566552099
 46      -0.152086542860
 47       0.086156008569
 48      -0.132761541193
 49       0.019767935696
 50      -0.679417226581
 51      -0.100118878425
 52       0.016123647676
 53      -0.033852192627
 54       1.001461375488
 55      -0.020752137741
 56       0.268888266308
 57      -0.133884814314
 58      -0.259927881621
 59       0.544731827942
 60      -0.163827228592
 61      -0.278865572590
 Sym=     1a
 Ene= -0.00000000000000E+00
 Spin= Alpha
 Occup=-0.000000
  1      -0.017238481517
  2       0.331349237912
  3       0.125243984784
  4      -0.167158640989
  5      -0.020700584827
  6       0.042912396803
  7      -0.150027423382
  8       0.449995977665
  9       0.742282872590
 10      -0.006619827927
 11      -0.193215657507
 12       0.233754025971
 13      -0.150446446710
 14      -0.050912180238
 15       0.547966261044
 16      -0.122045154498
 17       0.173746681985
 18      -0.000847304785
 19      -0.229778702620
 20       1.125046529723
 21       0.150473972512
 22      -0.856431313392
 23      -0.074121939084
 24       0.169891919027
 25      -0.033941652606
 26       0.098627328634
 27       0.062006850270
 28      -0.266514799474
 29      -0.090688783423
 30       0.114371772213
 31      -0.263521055331
 32      -0.017549293198
 33      -0.383861473494
 34      -0.051565129084
 35      -0.614588149131
 36      -0.079548672825
 37       0.237387187509
 38      -0.006899441806
 39       0.181269644803
 40      -0.137336590754
 41      -0.287717981491
 42      -0.007220498299
 43      -0.324928798377
 44       0.134520193807
 45       0.367028371921
 46       0.038642750914
 47       0.233134966397
 48      -0.505456702216
 49      -0.019838964259
 50       0.482465989943
 51       0.199010244294
 52      -0.092986123550
 53      -0.007062706649
 54      -0.717177287107
 55      -1.167038919291
 56      -0.371837970981
 57       0.332014957291
 58       0.013074854803
 59      -0.499636910011
 60      -0.143156436524
 61       0.740687836580
 Sym=     1a
 Ene= -0.00000000000000E+00
 Spin= Alpha
 Occup=-0.000000
  1      -0.019657513969
  2       0.054358439511
  3      -0.153206789166
  4       0.108106170657
  5       0.038179693063
  6       0.095450778432
  7       0.549808202325
  8      -1.063635611823
  9      -0.068656092992
 10      -0.020872516704
 11       0.307577795855
 12      -0.006876269654
 13       0.029928195500
 14      -0.027183441590
 15      -0.294944924252
 16      -0.099108819955
 17       0.212398822409
 18      -0.019623276639
 19       0.407830681745
 20       0.243870771500
 21       0.150961328105
 22      -1.147480100477
 23       0.179570204859
 24      -0.353340982018
 25      -0.020956837886
 26      -0.088529682907
 27      -0.105801256474
 28       0.081372822147
 29      -0.045530811439
 30       0.776079422556
 31       0.208397265714
 32      -0.093430316418
 33       0.397972313795
 34       0.374199538425
 35      -0.275671244343
 36       0.012172980512
 37      -0.436722856493
 38      -0.004783362516
 39      -0.049248344621
 40       0.057685892607
 41       0.041724888829
 42      -0.032271491571
 43       0.276204021915
 44      -0.407438488533
 45      -0.280310372471
 46      -0.000037315063
 47      -0.084474942634
 48       0.167418019304
 49       0.060699495997
 50      -0.398975130125
 51      -0.080551318339
 52      -0.566294203561
 53      -0.260146048628
 54       0.160311518187
 55      -0.883574410303
 56       1.225202588363
 57       0.395725709556
 58      -0.059229293765
 59       0.614398208121
 60      -0.208636105853
 61      -0.312676906048
 Sym=     1a
 Ene= -0.00000000000000E+00
 Spin= Alpha
 Occup=-0.000000
  1       0.040357711981
  2      -0.236089568403
  3      -0.056621844132
  4      -0.119506264927
  5      -0.223250933935
  6      -0.391350561461
  7      -0.059278695250
  8       0.091249018274
  9       0.077578598780
 10       0.007755550776
 11      -0.447011303034
 12      -0.023815596847
 13       0.067775803575
 14      -0.190069659197
 15       0.827676247613
 16      -0.214265146639
 17       0.079995513037
 18       0.236213724418
 19       0.232193851269
 20      -0.134588211381
 21      -0.002362644035
 22      -0.050382981323
 23      -0.470901101195
 24       0.871879089746
 25       0.063113073712
 26       0.107258339221
 27       0.094078325416
 28       0.393165127810
 29      -0.126820032223
 30      -1.070853525741
 31       0.051271752148
 32      -0.155555105157
 33      -0.098124476448
 34       0.220028372810
 35       0.072513118041
 36       0.472062373570
 37      -0.202682133808
 38      -0.012885972302
 39      -0.449801264750
 40      -0.283849054496
 41       0.136676563392
 42       0.016963918907
 43       0.815640526977
 44       0.509216408942
 45      -0.198150263572
 46      -0.275296067818
 47       0.217834047248
 48      -0.875729149356
 49      -0.011731953402
 50      -0.055365454360
 51       0.114472395194
 52      -0.057173709935
 53      -0.144406563818
 54       0.215525055190
 55      -0.191503783099
 56       0.200693659300
 57      -0.179081614927
 58       0.049917194471
 59       0.022448214987
 60      -0.094989523119
 61       0.391031921308
 Sym=     1a
 Ene= -0.00000000000000E+00
 Spin= Alpha
 Occup=-0.000000
  1       0.024183360297
  2      -0.124460105050
  3       0.094702342156
  4       0.100609577870
  5       0.447694113351
  6      -0.309001411705
  7      -0.069153367984
  8       0.169367151234
  9      -0.865564402809
 10      -0.017917085681
 11      -0.037453735633
 12      -0.218529434143
 13      -0.068109167127
 14       0.123914560952
 15       0.127272016167
 16       0.128138070133
 17       0.061060889449
 18       0.091182170359
 19       0.016249055049
 20      -0.830027341950
 21       0.053042519466
 22      -0.100514084618
 23      -0.088033858265
 24       0.505830643461
 25      -0.021901808870
 26       0.187773347930
 27      -0.206767265257
 28      -0.181369360646
 29       0.060750831826
 30      -0.402400496349
 31       0.432168198180
 32      -0.160816733694
 33       0.066641227246
 34       0.221999662650
 35      -0.336232767789
 36      -0.518602506155
 37       0.277863709123
 38       0.045324083421
 39      -0.336778570218
 40      -0.072533604501
 41      -0.085336562108
 42       0.319139396622
 43       0.282658748813
 44      -0.088989241983
 45       0.181179839932
 46      -0.216681002971
 47       0.216405915301
 48      -0.498292362431
 49      -0.043414080391
 50      -0.177473369235
 51      -0.014411157870
 52      -0.253655843549
 53      -0.035237444363
 54       1.202824078369
 55       0.512283124192
 56       0.500087369291
 57      -0.044000120720
 58      -0.244213162492
 59       0.352347885762
 60       0.037610733429
 61      -0.035893455780
 Sym=     1a
 Ene= -0.00000000000000E+00
 Spin= Alpha
 Occup=-0.000000
  1       0.013171241262
  2      -0.238529675327
  3      -0.153697033892
  4       0.240272692946
  5      -0.129985194244
  6      -0.071193182450
  7       0.178598959132
  8      -0.035765366209
  9       0.048223831803
 10       0.011008075504
 11      -0.129073586583
 12      -0.171273059085
 13       0.290447080470
 14       0.051667161865
 15       0.106080318718
 16       0.100946585221
 17      -0.284642075364
 18       0.005601691722
 19      -0.006070662740
 20      -0.204536157836
 21       0.139246518599
 22      -1.105463493174
 23      -0.109518106701
 24       0.015720158073
 25      -0.030357221990
 26       0.178873717040
 27       0.250815936088
 28      -0.145017146501
 29      -0.035060064901
 30       0.086051025148
 31      -0.268096489347
 32       0.166222897380
 33      -0.041944516886
 34      -0.058774244659
 35      -0.204986012707
 36      -0.360117894151
 37       0.337327052440
 38      -0.013446522747
 39       0.261497124299
 40       0.190267608407
 41       0.522371415471
 42      -0.033007050454
 43      -0.315778367697
 44      -0.201132913847
 45      -0.430521293876
 46       0.075849637593
 47      -0.181717107270
 48       0.244162122400
 49      -0.045376580775
 50      -0.277141639926
 51       0.123880857474
 52       0.205101282162
 53      -0.147218253232
 54       1.377971722837
 55      -0.520495085469
 56       0.005015995518
 57       0.350493615658
 58       0.356407542981
 59      -0.699499309388
 60      -0.065962357847
 61       0.292817098465
 Sym=     1a
 Ene= -0.00000000000000E+00
 Spin= Alpha
 Occup=-0.000000
  1      -0.040577878958
  2       0.211719224446
  3       0.007643763010
  4       0.536332400032
  5      -0.292771718120
  6       0.290440354960
  7      -0.066104527298
  8      -0.252284976581
  9       0.567058702992
 10      -0.004701062938
 11      -0.106861634054
 12      -0.129816966789
 13      -0.068676277195
 14       0.151121368393
 15       0.211129842228
 16      -0.078470054007
 17       0.200219009147
 18      -0.218159201318
 19      -0.157911972334
 20       0.192710652824
 21       0.015841143453
 22      -0.085786690348
 23      -0.149145885875
 24       0.221058205972
 25      -0.005815180263
 26      -0.081782187371
 27      -0.209287008339
 28       0.191937453120
 29       0.022240992007
 30       0.001981228423
 31       0.932450016849
 32      -0.263789622220
 33       0.062513434177
 34       0.148470275861
 35       0.154313185311
 36      -0.007692326730
 37      -0.700841904397
 38       0.018304461402
 39      -0.080669886352
 40       0.003035021431
 41      -0.423023432548
 42       0.204506401109
 43       0.232616608734
 44       0.085855002461
 45       0.883821144298
 46      -0.511830229096
 47      -0.368138979955
 48       0.083737679507
 49      -0.004423868078
 50      -0.177448540734
 51       0.050907833251
 52      -0.046882822197
 53       0.224834641957
 54       0.098089372556
 55      -0.105494366141
 56      -0.007720628235
 57      -0.078967787503
 58       0.500207661018
 59      -0.713160582135
 60       0.060162899697
 61       0.010461007421
 Sym=     1a
 Ene= -0.00000000000000E+00
 Spin= Alpha
 Occup=-0.000000
  1      -0.000034102835
  2       0.236720838231
  3       0.120941775483
  4       0.079931425472
  5      -0.477231964106
  6       0.011438700104
  7       0.341124506848
  8      -0.385037308626
  9      -0.190245762519
 10      -0.002122211958
 11       0.052234350463
 12       0.107418226080
 13      -0.036454749036
 14       0.107035396855
 15       0.075252347708
 16      -0.165819911265
 17      -0.003161271761
 18      -0.029333979984
 19       0.152726114016
 20      -0.649885170800
 21      -0.095810659332
 22      -0.135215043940
 23       0.335882891353
 24      -0.148382920706
 25      -0.018931182458
 26       0.042953077879
 27       0.011711338921
 28      -0.086551205806
 29       0.152212803749
 30       0.166349573267
 31      -0.339419900228
 32      -0.343421424767
 33       0.201379598515
 34      -0.238633934078
 35       0.294353880342
 36      -0.060382079337
 37       0.127705310333
 38       0.028530288416
 39      -0.033337277657
 40       0.090576787184
 41      -0.183259689346
 42      -0.112959637488
 43      -0.172399249305
 44      -0.453450251652
 45       0.120695573829
 46       0.412439834317
 47       0.417317067556
 48      -0.426932983534
 49      -0.045582098632
 50      -0.110804295102
 51      -0.065914040692
 52       0.160458784833
 53      -0.406266003524
 54       0.869001331862
 55       0.176566170790
 56       0.306851541888
 57       0.233243374460
 58       0.375598283480
 59      -0.240028795271
 60      -0.085659283915
 61      -0.660381560760
 Sym=     1a
 Ene= -0.00000000000000E+00
 Spin= Alpha
 Occup=-0.000000
  1       0.013331075123
  2      -0.059090031247
  3       0.297825941165
  4      -0.085303600177
  5       0.328113964792
  6      -0.070531787421
  7       0.117484292876
  8      -0.329149833452
  9      -0.177403880604
 10      -0.048887362956
 11       0.077311781113
 12      -0.050327558665
 13      -0.021913933751
 14       0.246888827419
 15       0.212228359170
 16       0.095743913018
 17       0.214680072185
 18       0.085629150608
 19      -0.589187593014
 20       0.209238813979
 21       0.225436010575
 22      -0.134268948524
 23      -0.081288804726
 24      -0.432387804385
 25       0.031718837481
 26      -0.192553876324
 27       0.167219446072
 28       0.278674915294
 29      -0.268771182127
 30       0.203082238676
 31      -0.389063836878
 32       0.274282566399
 33       0.428072763577
 34       0.239825442887
 35       0.101926495172
 36       0.145179719651
 37       0.234952561818
 38      -0.020648312718
 39       0.042075877396
 40       0.213105038015
 41       0.114044392482
 42      -0.095870409860
 43      -0.008630646172
 44      -0.260685718203
 45      -0.297692553499
 46      -0.038166142876
 47      -0.038668490276
 48      -0.213058465947
 49      -0.003649921527
 50       0.108195452899
 51       0.023928643690
 52      -0.054446686445
 53      -0.013353220256
 54      -0.025520111468
 55       0.243820614436
 56       0.268810806618
 57       0.251909447366
 58       0.308272406914
 59      -0.123206579151
 60      -0.213070452752
 61      -0.133765636460
 Sym=     1a
 Ene= -0.00000000000000E+00
 Spin= Alpha
 Occup=-0.000000
  1      -0.013396741235
  2       0.008248709070
  3       0.037410778662
  4      -0.220724354112
  5      -0.454756102934
  6       0.136317859305
  7       0.069020910944
  8      -0.155379549143
  9      -0.357801679480
 10       0.014635139767
 11       0.129158323981
 12      -0.127614090860
 13      -0.022892750423
 14      -0.079537189038
 15      -0.396848493575
 16      -0.188980231895
 17       0.034254774667
 18       0.001939087765
 19      -0.419977575857
 20       0.057957744936
 21      -0.196586520677
 22      -0.282401953328
 23      -0.319311925387
 24      -0.142110232926
 25      -0.015505416551
 26      -0.066746698892
 27       0.098402884926
 28      -0.185371704051
 29      -0.021237447047
 30       0.363945490496
 31       0.132792370714
 32       0.565371183239
 33       0.265104535357
 34       0.490826085087
 35      -0.254080012800
 36      -0.267707469850
 37      -0.004971200273
 38       0.004175075955
 39      -0.113448843232
 40      -0.035569411671
 41      -0.044286828783
 42      -0.080467766019
 43       0.149047640546
 44      -0.015310162004
 45      -0.165744208865
 46       0.060596188310
 47      -0.290225144057
 48       0.326379835352
 49      -0.078096769693
 50       0.220574813230
 51       0.141926342346
 52       0.063504929158
 53      -0.140309359715