[Molden Format]
[Atoms] (AU)
C    1    6        -0.360009084327      -2.148070776303       0.125608697478
O    2    8        -2.157000680820      -1.901874435867      -1.247590787926
H    3    1         1.194884609654      -1.021282646227       3.669225180286
H    4    1        -2.183097442855      -1.086967519062       3.569828555837
H    5    1         2.460843836071       4.788112403615      -2.588861782724
C    6    6         2.438662368724       2.914670473766      -1.715440610530
H    7    1         2.342153850430       1.478675326513      -3.203722638315
H    8    1         4.193739184868       2.663926003240      -0.666840487610
O    9    8         0.437611192249       2.661601646272       0.039376781559
H   10    1        -1.133973806002       2.590178544959      -0.863883566239
C   11    6        -0.457186741377      -2.023119960254       2.954735354556
H   12    1        -0.420787777386      -3.953704804401       3.698120806091
H   13    1         1.527672114972      -2.555187951563      -0.690304454762
[GTO]
  1 0
 s    3  1.00
      172.2560000000         0.0617669000
       25.9109000000         0.3587940000
        5.5333500000         0.7007130000
 s    2  1.00
        3.6649800000        -0.3958970000
        0.7705450000         1.2158400000
 p    2  1.00
        3.6649800000         0.2364600000
        0.7705450000         0.8606190000
 s    1  1.00
        0.1958570000         1.0000000000
 p    1  1.00
        0.1958570000         1.0000000000

  2 0
 s    3  1.00
      322.0370000000         0.0592394000
       48.4308000000         0.3515000000
       10.4206000000         0.7076580000
 s    2  1.00
        7.4029400000        -0.4044530000
        1.5762000000         1.2215600000
 p    2  1.00
        7.4029400000         0.2445860000
        1.5762000000         0.8539550000
 s    1  1.00
        0.3736840000         1.0000000000
 p    1  1.00
        0.3736840000         1.0000000000

  3 0
 s    2  1.00
        5.4471780000         0.1562850000
        0.8245470000         0.9046910000
 s    1  1.00
        0.1831920000         1.0000000000

  4 0
 s    2  1.00
        5.4471780000         0.1562850000
        0.8245470000         0.9046910000
 s    1  1.00
        0.1831920000         1.0000000000

  5 0
 s    2  1.00
        5.4471780000         0.1562850000
        0.8245470000         0.9046910000
 s    1  1.00
        0.1831920000         1.0000000000

  6 0
 s    3  1.00
      172.2560000000         0.0617669000
       25.9109000000         0.3587940000
        5.5333500000         0.7007130000
 s    2  1.00
        3.6649800000        -0.3958970000
        0.7705450000         1.2158400000
 p    2  1.00
        3.6649800000         0.2364600000
        0.7705450000         0.8606190000
 s    1  1.00
        0.1958570000         1.0000000000
 p    1  1.00
        0.1958570000         1.0000000000

  7 0
 s    2  1.00
        5.4471780000         0.1562850000
        0.8245470000         0.9046910000
 s    1  1.00
        0.1831920000         1.0000000000

  8 0
 s    2  1.00
        5.4471780000         0.1562850000
        0.8245470000         0.9046910000
 s    1  1.00
        0.1831920000         1.0000000000

  9 0
 s    3  1.00
      322.0370000000         0.0592394000
       48.4308000000         0.3515000000
       10.4206000000         0.7076580000
 s    2  1.00
        7.4029400000        -0.4044530000
        1.5762000000         1.2215600000
 p    2  1.00
        7.4029400000         0.2445860000
        1.5762000000         0.8539550000
 s    1  1.00
        0.3736840000         1.0000000000
 p    1  1.00
        0.3736840000         1.0000000000

  10 0
 s    2  1.00
        5.4471780000         0.1562850000
        0.8245470000         0.9046910000
 s    1  1.00
        0.1831920000         1.0000000000

  11 0
 s    3  1.00
      172.2560000000         0.0617669000
       25.9109000000         0.3587940000
        5.5333500000         0.7007130000
 s    2  1.00
        3.6649800000        -0.3958970000
        0.7705450000         1.2158400000
 p    2  1.00
        3.6649800000         0.2364600000
        0.7705450000         0.8606190000
 s    1  1.00
        0.1958570000         1.0000000000
 p    1  1.00
        0.1958570000         1.0000000000

  12 0
 s    2  1.00
        5.4471780000         0.1562850000
        0.8245470000         0.9046910000
 s    1  1.00
        0.1831920000         1.0000000000

  13 0
 s    2  1.00
        5.4471780000         0.1562850000
        0.8245470000         0.9046910000
 s    1  1.00
        0.1831920000         1.0000000000

[MO]
 Sym= A
 Ene=        -0.0000000000
 Spin= Alpha
 Occup= -0.0000
  1      -0.061510507957
  2      -0.733636349933
  3      -0.137667023867
  4       0.022970352559
  5       0.129701977242
  6       2.631935006209
  7       0.126872668095
  8       0.096302482043
  9       2.353598332942
 10       0.001827047765
 11      -0.333095155669
 12      -0.019616812913
 13       0.028338039289
 14      -0.026080062238
 15       0.633799792355
 16       0.388675782816
 17      -0.090142725515
 18      -0.299649146190
 19       0.067925694605
 20       0.990515608722
 21       0.191709296897
 22       0.412206727543
 23       0.038006280412
 24      -0.122410886954
 25       0.000352388847
 26       0.022624785432
 27       0.048422863470
 28       0.048561720012
 29       0.027298049642
 30      -0.025783903724
 31       0.181044525116
 32       0.148691790338
 33       0.184754230726
 34      -0.022857895802
 35       0.388915397149
 36      -0.008955195095
 37      -0.290812409891
 38      -0.005694291901
 39       0.027461315292
 40       0.037841634327
 41       0.021958926499
 42       0.039682891599
 43       0.037327582242
 44      -0.080107499287
 45       0.012637713611
 46      -0.145285157342
 47       0.014115869857
 48      -0.119522372317
 49       0.136454653040
 50       1.354685622434
 51       0.070903519334
 52       0.010797169503
 53       0.032339316197
 54      -4.997333154673
 55      -0.415788319442
 56       0.032944971229
 57       1.535643729010
 58       0.223554344590
 59       0.515132678984
 60      -0.046412689820
 61       0.198507762804
 Sym= A
 Ene=        -0.0000000000
 Spin= Alpha
 Occup= -0.0000
  1       0.025677635757
  2       0.439935515022
  3       0.193012149137
  4      -0.093003407803
  5      -0.042344639235
  6      -0.420284423691
  7      -2.676470719422
  8       0.548085424438
  9       0.080535908822
 10       0.010795694548
 11       0.872906090839
 12       0.122794481174
 13       0.032144762510
 14       0.117987278685
 15      -2.106065673311
 16      -0.296898506086
 17       0.010723278596
 18      -0.756779179779
 19      -0.110892119676
 20       0.041211266972
 21       0.190711078562
 22       0.506431509210
 23       0.049067228393
 24      -0.151959224908
 25      -0.014838848610
 26      -0.228020675837
 27       0.019696085040
 28       0.036562850098
 29      -0.003193016077
 30       0.680516688200
 31       0.069258561597
 32      -0.111647321502
 33      -0.064798851142
 34       0.022410012798
 35      -0.353242325513
 36       0.006887508958
 37      -0.268586853385
 38      -0.015672623825
 39       0.156480886021
 40      -0.097372529091
 41      -0.012595141138
 42       0.011755307293
 43      -0.122262398188
 44       0.082638161798
 45       0.044299371434
 46      -0.006943387826
 47       0.091946736635
 48      -0.193861764650
 49       0.006161124067
 50       0.517308081481
 51      -0.056016018310
 52       0.012617341595
 53       0.111210662475
 54      -1.018559239652
 55       1.029231598801
 56      -0.258625504237
 57      -0.071854476568
 58       0.005338234685
 59       0.055447727802
 60       0.072576318246
 61       2.023967839003
 Sym= A
 Ene=        -0.0000000000
 Spin= Alpha
 Occup= -0.0000
  1       0.001683610948
  2      -0.205803148795
  3      -0.081839130328
  4      -0.019214699217
  5      -0.024678217102
  6       0.169398754193
  7       0.219749791409
  8       0.066832981572
  9      -0.027674355518
 10       0.004760698830
 11      -0.086781975273
 12      -0.018685215298
 13       0.030807551049
 14      -0.037718170624
 15       0.118525718343
 16      -0.004075733772
 17      -0.041840754199
 18       0.061530248249
 19       0.036591319432
 20      -0.074091514537
 21      -0.036900169170
 22      -0.334477916325
 23       0.005797534130
 24      -1.550842725378
 25      -0.038323084236
 26      -1.428744910586
 27      -0.075605251294
 28      -0.213833461231
 29       0.174036876823
 30       3.102427005543
 31       0.029815186065
 32       0.890623187665
 33      -0.072542685319
 34      -0.413662216075
 35       0.228536777444
 36      -0.295390237017
 37      -0.447780768794
 38      -0.015997580087
 39       0.675906868849
 40       0.043787898389
 41      -0.014587937695
 42      -0.255313306590
 43      -1.122107344156
 44      -0.253207973839
 45      -0.129804105821
 46       0.475210825078
 47       0.178741500213
 48      -0.136148770019
 49      -0.018303185386
 50      -0.246662002670
 51      -0.022782280255
 52      -0.009521018849
 53       0.013354895180
 54       0.662355955273
 55      -0.208489590940
 56      -0.081351625941
 57       0.099604143168
 58      -0.062995711769
 59      -0.237711533647
 60      -0.050900178936
 61      -0.075683896283
 Sym= A
 Ene=        -0.0000000000
 Spin= Alpha
 Occup= -0.0000
  1      -0.036373349161
  2      -0.513400607551
  3      -0.259763713136
  4      -0.014034810988
  5       0.001497829524
  6       2.413910449944
  7      -0.792497368713
  8       0.052452823903
  9       0.080487942961
 10       0.036553313487
 11       0.438733984580
 12       0.206064977579
 13      -0.050769211733
 14       0.032222906412
 15      -1.476530425361
 16      -0.607846002777
 17       0.153996201242
 18      -0.519682278368
 19       0.038050444669
 20      -0.789624974984
 21       0.017496112507
 22      -0.635263904837
 23       0.102056211860
 24       0.084612130656
 25      -0.019664935711
 26       0.199601279615
 27       0.077625686266
 28       0.120650218181
 29       0.050393691091
 30      -0.130973100146
 31       0.016259578870
 32      -0.223372154443
 33       0.185960090726
 34      -0.012211034958
 35       0.146359888382
 36       0.031176504457
 37      -0.296179634658
 38       0.026539671710
 39      -0.068990578727
 40      -0.070826249434
 41      -0.032742291198
 42      -0.028510741778
 43      -0.090261428443
 44       0.152504130829
 45       0.135416364968
 46       0.129476343896
 47       0.175018042636
 48       0.006795059100
 49       0.030049667814
 50      -0.652240636994
 51      -0.420514100186
 52       0.054609219983
 53      -0.176412881870
 54       0.838420791098
 55       0.610325442280
 56       0.273010555670
 57       1.261017901274
 58       0.087680580040
 59      -0.319120348523
 60       0.312503830242
 61      -0.428015498940
 Sym= A
 Ene=        -0.0000000000
 Spin= Alpha
 Occup= -0.0000
  1      -0.015161731801
  2       0.102391246690
  3       0.008228143632
  4       0.001479941337
  5       0.199532468795
  6       0.524289017578
  7      -0.233627721281
  8      -0.049206093787
  9      -0.894810684375
 10       0.016143673653
 11       0.265177115269
 12       0.175246797003
 13      -0.127749331086
 14      -0.002985579304
 15      -0.835659470409
 16      -0.467908236280
 17       0.187097838037
 18      -0.016279105364
 19      -0.104760893800
 20       0.166198292284
 21       0.163799504310
 22       0.352242308938
 23       0.128339052178
 24      -0.381412755305
 25       0.095965401843
 26       0.079691639801
 27       0.027738432396
 28      -0.065533511559
 29       0.030612863527
 30      -1.604046692817
 31      -0.051619407815
 32       0.969169680536
 33       0.160681923347
 34      -0.062581484249
 35       1.526004698860
 36      -0.067626095372
 37       0.739561682517
 38       0.030893614219
 39      -0.720121345682
 40       0.082054342752
 41      -0.035601147350
 42       0.142979791477
 43       1.016695906114
 44       0.045685079287
 45      -0.110077125027
 46      -0.363924556609
 47      -0.019152603747
 48      -0.261690902893
 49       0.022751678785
 50       0.177671270939
 51       0.180569297975
 52      -0.052484875212
 53      -0.059432539442
 54      -0.233201533384
 55       0.221602368122
 56      -0.062900780854
 57      -0.203389074367
 58       0.018792649470
 59       0.094149778509
 60       0.023225351595
 61      -0.459546007363
 Sym= A
 Ene=        -0.0000000000
 Spin= Alpha
 Occup= -0.0000
  1       0.059967156060
  2      -0.306846086900
  3       0.468051130496
  4      -0.119154415965
  5      -0.269119808184
  6      -0.343896535707
  7      -0.519509768300
  8       0.147737118206
  9       1.252830060389
 10      -0.070714923897
 11       0.190979896071
 12      -0.037403059878
 13      -0.061241763908
 14       0.318952708780
 15       0.361066665577
 16       0.647999230122
 17      -0.043421765094
 18      -0.285498947648
 19      -0.125578583908
 20       0.034535723739
 21       0.077200461983
 22       0.179276159360
 23       0.158672333067
 24      -0.090085862190
 25       0.033020991895
 26      -0.003870281047
 27       0.002174079259
 28      -0.033579719613
 29      -0.041340912306
 30      -0.570351541517
 31      -0.142964723327
 32       0.103031735595
 33      -0.034076731558
 34      -0.133042805773
 35       0.454452813441
 36       0.022675404095
 37       0.341485804178
 38       0.009060979600
 39      -0.143681052015
 40      -0.111814932210
 41      -0.025752056212
 42      -0.012781603306
 43       0.188943676052
 44       0.238129135437
 45       0.034514545378
 46      -0.041801491675
 47       0.138879730435
 48      -0.093759231450
 49       0.032249560931
 50      -0.452231841786
 51      -0.204581264724
 52       0.070507947078
 53       0.136669819215
 54      -0.483546078433
 55       0.431038409401
 56       0.039409168015
 57      -0.122607423479
 58      -0.190086882333
 59       0.454662386251
 60       0.448444541732
 61       0.138001723597
 Sym= A
 Ene=        -0.0000000000
 Spin= Alpha
 Occup= -0.0000
  1       0.010126208512
  2      -0.451964267076
  3       0.238820045481
  4      -0.040526778961
  5      -0.034747137432
  6       0.073039767304
  7       0.179158424374
  8      -0.091353451334
  9      -0.403224284677
 10      -0.018348536780
 11       0.067858361712
 12      -0.106330026182
 13      -0.031317063950
 14       0.055474135699
 15      -0.041210497033
 16       0.150514601360
 17       0.139532406451
 18       0.133470072155
 19      -0.480942443268
 20       1.063161398765
 21       0.061042130701
 22      -1.026483599854
 23      -0.114714299463
 24       0.080162475447
 25       0.006141976006
 26       0.133880501068
 27       0.124516373927
 28       0.103146387004
 29       0.021878011327
 30      -0.222665491417
 31       0.562876985907
 32       0.157562957835
 33       0.108368368274
 34       0.268907042234
 35       0.125164201076
 36      -0.018574107679
 37      -0.509239172351
 38      -0.034412379063
 39      -0.137542243229
 40       0.083018426463
 41      -0.040044747281
 42       0.194822243115
 43       0.670416605119
 44      -0.107685760921
 45       0.044882953130
 46      -0.553891113210
 47       0.056552746078
 48      -0.480128547862
 49      -0.054345822904
 50      -0.287214108130
 51       0.060357263875
 52      -0.058784157233
 53       0.185388558497
 54       1.128607589079
 55      -0.855749645090
 56      -0.109305825629
 57      -0.357085426599
 58       0.135717501914
 59      -0.671494118392
 60      -0.287958432088
 61      -0.088129225600
 Sym= A
 Ene=        -0.0000000000
 Spin= Alpha
 Occup= -0.0000
  1      -0.000175861177
  2      -0.137967596169
  3       0.006631866568
  4       0.154535650761
  5      -0.185188781319
  6      -0.387314131694
  7      -0.323201118553
  8      -0.164833689294
  9       1.150890590210
 10      -0.005573853328
 11      -0.243673626586
 12      -0.278293414673
 13      -0.174141430494
 14      -0.105469686202
 15       0.609630119741
 16       0.543678622039
 17       0.176654278599
 18      -0.014372723303
 19       0.405520263995
 20      -1.113731812736
 21      -0.130677474726
 22      -0.249561513041
 23      -0.058609733093
 24      -0.531470650627
 25      -0.008467490289
 26       0.001472043863
 27      -0.125843144030
 28      -0.093460808576
 29      -0.237974917644
 30       0.043187286754
 31       0.146305955082
 32       0.620863524939
 33       0.084668039833
 34      -0.056812794510
 35       0.322278162831
 36       0.085138658973
 37       0.016256561685
 38       0.020628253433
 39      -0.711255498365
 40       0.076139862478
 41       0.085275897107
 42       0.160184487520
 43       0.996492980916
 44      -0.298813784820
 45      -0.261256198543
 46      -0.314784816007
 47      -0.237287448948
 48      -0.329666107435
 49      -0.015768364528
 50      -0.282655799238
 51      -0.091900935019
 52       0.033593673926
 53       0.023934243924
 54       0.618493709078
 55       0.192997059640
 56       0.204616719029
 57       0.658319284907
 58       0.196645143094
 59      -0.483343978127
 60      -0.198515054132
 61       1.106395527265
 Sym= A
 Ene=        -0.0000000000
 Spin= Alpha
 Occup= -0.0000
  1       0.001314976804
  2      -0.014839821431
  3      -0.258127984409
  4      -0.126928242823
  5       0.084926816134
  6       0.284368055949
  7       0.238496419631
  8       0.189350220902
  9      -0.335977920096
 10       0.009425307716
 11       0.057418514478
 12       0.202322312016
 13      -0.032258605379
 14       0.008103583814
 15      -0.204431154310
 16      -0.316162699778
 17       0.048789533093
 18      -0.048258327198
 19      -0.103929483460
 20       0.526250541233
 21      -0.050617064097
 22       0.593016770258
 23       0.019250276774
 24      -0.346120268633
 25      -0.004515371850
 26      -0.362047181976
 27      -0.531396844436
 28       0.092753308455
 29      -0.184347010684
 30       0.708839923086
 31       0.599400590561
 32      -0.160375457982
 33      -0.384446898299
 34       0.055569246403
 35      -0.720629250092
 36      -0.003893259218
 37       0.038591838299
 38       0.020910263909
 39      -0.227570435675
 40      -0.071799146788
 41      -0.020417135895
 42       0.291791631694
 43       0.264456334286
 44       0.215298909845
 45       0.083187429888
 46      -0.247581879739
 47      -0.061763921618
 48       0.311000422082
 49      -0.010109581210
 50       0.094699506608
 51      -0.393146650346
 52      -0.005164516764
 53       0.196214029614
 54      -0.047584680993
 55       0.394461635705
 56      -0.880750121622
 57      -0.213967490760
 58      -0.074242909618
 59      -0.812046197495
 60       0.144065357313
 61      -0.436968100722
 Sym= A
 Ene=        -0.0000000000
 Spin= Alpha
 Occup= -0.0000
  1       0.004724751400
  2      -0.085912638280
  3       0.235507992380
  4       0.312227047415
  5       0.069518017361
  6       0.104324599902
  7       0.262042879064
  8      -0.371946145340
  9       0.146105215992
 10      -0.037258250098
 11       0.118092497954
 12       0.194264504725
 13       0.219848353851
 14       0.022355355405
 15       0.194019425099
 16      -0.004722141190
 17      -0.181712943120
 18       0.167377745733
 19      -0.177955477899
 20      -0.097792154548
 21      -0.313455677771
 22       0.311705720160
 23       0.144814310716
 24      -0.488743895278
 25      -0.044595878315
 26       0.173763865489
 27       0.105063736005
 28       0.016956632935
 29       0.033725246073
 30       0.004946713829
 31      -0.656785538330
 32       0.199727274457
 33      -0.038141126475
 34      -0.227643540231
 35       0.336405316367
 36       0.186460645998
 37       0.163616213757
 38       0.033714263733
 39       0.093677506768
 40      -0.328069284167
 41      -0.044286492263
 42       0.144387872683
 43      -0.483919265888
 44       0.428852056217
 45      -0.074106859091
 46       0.288043380759
 47       0.476352822650
 48      -0.020965406955
 49      -0.052547022449
 50       0.273626851141
 51       0.026948906428
 52       0.214590816378
 53       0.208247311455
 54       0.119797716825
 55       0.026204193755
 56      -0.229221767424
 57       0.106260197296
 58       0.324190147966
 59      -0.789710436399
 60      -0.109339316445
 61      -0.193091179660
 Sym= A
 Ene=        -0.0000000000
 Spin= Alpha
 Occup= -0.0000
  1      -0.000804436797
  2      -0.038772222130
  3      -0.349614807134
  4       0.107502758755
  5      -0.119566456135
  6       0.073409936967
  7       0.319565072332
  8       0.051247426407
  9      -0.312578462035
 10       0.036261302747
 11      -0.063195412416
 12       0.292030973405
 13       0.097511345004
 14       0.028150547971
 15      -0.163283881208
 16      -0.581154313994
 17      -0.020416517241
 18      -0.182994285128
 19       0.178518337678
 20       0.437192773479
 21      -0.190549635164
 22       0.144929167178
 23      -0.106990157721
 24       0.260443199583
 25       0.023753603721
 26       0.455418112028
 27      -0.144931713937
 28      -0.116284166699
 29       0.037854934157
 30      -1.206823595624
 31      -0.206430948126
 32       0.208536484944
 33      -0.233396287600
 34      -0.096531323707
 35       0.380214605340
 36       0.144596325989
 37       0.543505731267
 38      -0.029108386784
 39       0.108646324948
 40      -0.285565692163
 41      -0.248902713819
 42      -0.203136119346
 43       0.254392253586
 44       0.177501841623
 45       0.251449084567
 46       0.115020447986
 47       0.120134398348
 48      -0.413484380259
 49       0.041691390799
 50      -0.251875002469
 51      -0.195374484909
 52       0.190388683551
 53       0.156387532532
 54      -0.124563453848
 55      -0.300665416728
 56      -0.208860402232
 57      -0.565902829748
 58      -0.021157466890
 59       0.261354242822
 60      -0.453559682396
 61       0.300098597676
 Sym= A
 Ene=        -0.0000000000
 Spin= Alpha
 Occup= -0.0000
  1      -0.037379149309
  2       0.190043941624
  3      -0.158558201001
  4       0.153887874164
  5      -0.089972145493
  6       0.551591339255
  7       0.117048624421
  8      -0.216993727057
  9       0.346985826168
 10      -0.006754037806
 11       0.322553629033
 12      -0.295290835548
 13       0.214834029819
 14       0.312165456031
 15      -0.372508386086
 16       0.108798148011
 17      -0.143825611051
 18      -0.485791983925
 19       0.082931481355
 20      -0.031861981594
 21       0.009135216132
 22      -0.402371618588
 23       0.023381204797
 24       0.067169402954
 25       0.034001255499
 26      -0.209803568225
 27      -0.248972140390
 28      -0.134447762305
 29      -0.063604576389
 30      -0.288602098495
 31       0.565198377611
 32       0.183338383684
 33      -0.041804101668
 34       0.210643974854
 35      -0.066777639881
 36      -0.093785901450
 37       0.030353745892
 38      -0.021276067703
 39       0.191231255952
 40      -0.396515627789
 41       0.027335821716
 42       0.414856625555
 43      -0.060854466957
 44       0.666591630327
 45      -0.048500707418
 46      -0.497969590315
 47       0.088200793720
 48       0.382680514878
 49       0.039158796402
 50      -0.098723402026
 51       0.228890365818
 52       0.008773417314
 53      -0.273261255163
 54      -0.307076139282
 55      -0.508145712838
 56       0.482789639102
 57       0.541315240380
 58       0.226965901935
 59       0.227318064234
 60      -0.144154177490
 61       0.021474426845
 Sym= A
 Ene=        -0.0000000000
 Spin= Alpha
 Occup= -0.0000
  1      -0.032709038518
  2       0.419162275758
  3      -0.101549772738
  4      -0.305066298728
  5      -0.324624799638
  6      -0.102498202361
  7      -0.253589546415
  8       0.103535282210
  9       0.559860356367
 10       0.016265797710
 11       0.010924288572
 12      -0.358666979674
 13       0.064927651071
 14       0.028073002923
 15      -0.044177877554
 16       0.254280173893
 17       0.165478705907
 18      -0.282158348281
 19      -0.216392175513
 20       0.886229266202
 21      -0.052787728695
 22      -0.108404395827
 23      -0.189783354082
 24      -0.058492524594
 25      -0.031257084538
 26       0.103520353999
 27       0.134364671059
 28       0.112707507585
 29      -0.057307919865
 30      -0.018906116375
 31      -0.680306169658
 32       0.057883434161
 33       0.096388007637
 34      -0.196927442157
 35       0.257330347702
 36       0.079696939283
 37       0.299069586498
 38       0.022408229689
 39      -0.073414018997
 40      -0.141095705025
 41      -0.176702593571
 42      -0.158114816319
 43      -0.213940136994
 44      -0.118445268896
 45       0.059697534167
 46       0.331183937653
 47      -0.171233920333
 48       0.005205956539
 49      -0.002901638712
 50      -0.032591208872
 51       0.086452113064
 52       0.072253733397
 53      -0.341152476786
 54      -0.181396954697
 55      -0.443495238007
 56      -0.636678082027
 57       0.562676764354
 58       0.085866882079
 59      -0.840641737751
 60       0.082665531102
 61       0.192649509142
 Sym= A
 Ene=        -0.0000000000
 Spin= Alpha
 Occup= -0.0000
  1      -0.012259599907
  2      -0.162259957561
  3       0.054459516976
  4       0.168941346719
  5      -0.024771831665
  6      -0.012173554166
  7       0.139434865335
  8      -0.178946149658
  9      -0.435694775467
 10      -0.015960932052
 11       0.193621357829
 12      -0.249752590012
 13      -0.295488071382
 14      -0.480250177844
 15      -0.220509188647
 16       0.149648253648
 17       0.234785191415
 18       0.572109345642
 19      -0.081449099629
 20       0.229867419015
 21      -0.352733163843
 22       0.317725631263
 23       0.081321233480
 24       0.067484562008
 25       0.012021001556
 26      -0.203766520502
 27      -0.002231256388
 28       0.079709834132
 29       0.078302843830
 30       0.132685427213
 31      -0.046683790131
 32      -0.122387559593
 33      -0.040546933744
 34       0.236431383298
 35      -0.297667007140
 36      -0.110410670739
 37       0.081097471148
 38       0.026684496230
 39      -0.212114673353
 40      -0.480433760302
 41       0.353126175213
 42      -0.139098935850
 43       0.110591959156
 44       0.462498292592
 45      -0.307718390587
 46       0.164714818989
 47       0.139617459437
 48      -0.017448686109
 49      -0.019084064345
 50       0.129550263198
 51      -0.160066124520
 52      -0.039485485223
 53      -0.085929845653
 54      -0.158111359260
 55       0.004002290578
 56       0.031381544598
 57      -0.154846907642
 58      -0.311040366355
 59       0.399000006614
 60      -0.177102188392
 61      -0.102082212953
 Sym= A
 Ene=        -0.0000000000
 Spin= Alpha
 Occup= -0.0000
  1      -0.016491318766
  2      -0.176763513458
  3      -0.012868986875
  4      -0.076719042485
  5      -0.040771797435
  6      -0.105401599230
  7      -0.250408003994
  8      -0.111859683279
  9      -0.004166292141
 10       0.004038388071
 11       0.004737565996
 12      -0.226369733037
 13       0.491366019563
 14      -0.297811399689
 15      -0.091153776734
 16       0.251304735133
 17      -0.337454646333
 18       0.249515495545
 19      -0.031534056673
 20       0.198121246806
 21       0.111366952640
 22       0.066783772179
 23       0.059605593409
 24       0.402612944821
 25       0.042750312577
 26       0.025276257557
 27      -0.128051405628
 28      -0.045453489498
 29       0.154288526357
 30      -0.565490728480
 31      -0.266554850507
 32      -0.130032971201
 33       0.053620798306
 34      -0.083588691002
 35       0.225855457018
 36      -0.028127531552
 37       0.471405797026
 38       0.015638511129
 39       0.090890100076
 40       0.310408845737
 41       0.345067406079
 42      -0.002228353643
 43      -0.278244613627
 44      -0.294570023816
 45      -0.316457679938
 46       0.120649766452
 47      -0.015535704084
 48       0.131131570297
 49       0.035675956703
 50      -0.004720576144
 51      -0.292898584132
 52       0.179768701071
 53       0.095334362696
 54      -0.234131852580
 55       0.348418172231
 56       0.032243726757
 57      -0.336465681402
 58       0.531828891269
 59      -0.209726151136
 60       0.016828958851
 61       0.084890983247
 Sym= A
 Ene=        -0.0000000000
 Spin= Alpha
 Occup= -0.0000
  1       0.003079619886
  2       0.046475973225
  3       0.152745133446
  4       0.260286479795
  5       0.149152918444
  6      -0.309293196009
  7      -0.045627590119
  8      -0.003670850734
  9      -0.284831302152
 10      -0.016717395045
 11       0.042632769276
 12      -0.140769190264
 13       0.240620830357
 14      -0.012924823615
 15       0.023929941887
 16       0.164080592373
 17      -0.395471583070
 18       0.183355900561
 19       0.025477250996
 20      -0.003569176307
 21       0.361100522733
 22      -0.392804739754
 23      -0.123755199380
 24      -0.242317370391
 25      -0.084892330588
 26       0.165551554425
 27      -0.266475327996
 28       0.040144445348
 29       0.269193975029
 30       0.519397942176
 31       0.108872222512
 32       0.052121107102
 33       0.015736632880
 34      -0.395952059181
 35       0.292694013391
 36       0.056217635039
 37      -0.374806097438
 38       0.019602431273
 39      -0.062245966415
 40      -0.103176534441
 41      -0.043591170043
 42       0.242988187854
 43      -0.020058273863
 44      -0.459487562896
 45      -0.003962590988
 46      -0.077217780804
 47      -0.383084100065
 48       0.009812910287
 49       0.001182283550
 50       0.057304898578
 51      -0.214419684983
 52      -0.360129498754
 53      -0.116388510610
 54       0.025038251825
 55       0.198404462805
 56       0.318660028689
 57      -0.062503190871
 58      -0.454800356890
 59       0.663838211553