[Molden Format]
[Title]
CLPOs

[Atoms] AU
C    1   6         -0.3600090843        -2.1480707763         0.1256086975 
O    2   8         -2.1570006808        -1.9018744359        -1.2475907879 
H    3   1          1.1948846097        -1.0212826462         3.6692251803 
H    4   1         -2.1830974429        -1.0869675191         3.5698285558 
H    5   1          2.4608438361         4.7881124036        -2.5888617827 
C    6   6          2.4386623687         2.9146704738        -1.7154406105 
H    7   1          2.3421538504         1.4786753265        -3.2037226383 
H    8   1          4.1937391849         2.6639260032        -0.6668404876 
O    9   8          0.4376111922         2.6616016463         0.0393767816 
H   10   1         -1.1339738060         2.5901785450        -0.8638835662 
C   11   6         -0.4571867414        -2.0231199603         2.9547353546 
H   12   1         -0.4207877774        -3.9537048044         3.6981208061 
H   13   1          1.5276721150        -2.5551879516        -0.6903044548 
[GTO]
  1 0 
s   3 1.0  
      172.2560000000         0.0617669000 
       25.9109000000         0.3587940000 
        5.5333500000         0.7007130000 
s   2 1.0  
        3.6649800000        -0.3958970000 
        0.7705450000         1.2158400000 
p   2 1.0  
        3.6649800000         0.2364600000 
        0.7705450000         0.8606190000 
s   1 1.0  
        0.1958570000         1.0000000000 
p   1 1.0  
        0.1958570000         1.0000000000 

  2 0 
s   3 1.0  
      322.0370000000         0.0592394000 
       48.4308000000         0.3515000000 
       10.4206000000         0.7076580000 
s   2 1.0  
        7.4029400000        -0.4044530000 
        1.5762000000         1.2215600000 
p   2 1.0  
        7.4029400000         0.2445860000 
        1.5762000000         0.8539550000 
s   1 1.0  
        0.3736840000         1.0000000000 
p   1 1.0  
        0.3736840000         1.0000000000 

  3 0 
s   2 1.0  
        5.4471780000         0.1562850000 
        0.8245470000         0.9046910000 
s   1 1.0  
        0.1831920000         1.0000000000 

  4 0 
s   2 1.0  
        5.4471780000         0.1562850000 
        0.8245470000         0.9046910000 
s   1 1.0  
        0.1831920000         1.0000000000 

  5 0 
s   2 1.0  
        5.4471780000         0.1562850000 
        0.8245470000         0.9046910000 
s   1 1.0  
        0.1831920000         1.0000000000 

  6 0 
s   3 1.0  
      172.2560000000         0.0617669000 
       25.9109000000         0.3587940000 
        5.5333500000         0.7007130000 
s   2 1.0  
        3.6649800000        -0.3958970000 
        0.7705450000         1.2158400000 
p   2 1.0  
        3.6649800000         0.2364600000 
        0.7705450000         0.8606190000 
s   1 1.0  
        0.1958570000         1.0000000000 
p   1 1.0  
        0.1958570000         1.0000000000 

  7 0 
s   2 1.0  
        5.4471780000         0.1562850000 
        0.8245470000         0.9046910000 
s   1 1.0  
        0.1831920000         1.0000000000 

  8 0 
s   2 1.0  
        5.4471780000         0.1562850000 
        0.8245470000         0.9046910000 
s   1 1.0  
        0.1831920000         1.0000000000 

  9 0 
s   3 1.0  
      322.0370000000         0.0592394000 
       48.4308000000         0.3515000000 
       10.4206000000         0.7076580000 
s   2 1.0  
        7.4029400000        -0.4044530000 
        1.5762000000         1.2215600000 
p   2 1.0  
        7.4029400000         0.2445860000 
        1.5762000000         0.8539550000 
s   1 1.0  
        0.3736840000         1.0000000000 
p   1 1.0  
        0.3736840000         1.0000000000 

 10 0 
s   2 1.0  
        5.4471780000         0.1562850000 
        0.8245470000         0.9046910000 
s   1 1.0  
        0.1831920000         1.0000000000 

 11 0 
s   3 1.0  
      172.2560000000         0.0617669000 
       25.9109000000         0.3587940000 
        5.5333500000         0.7007130000 
s   2 1.0  
        3.6649800000        -0.3958970000 
        0.7705450000         1.2158400000 
p   2 1.0  
        3.6649800000         0.2364600000 
        0.7705450000         0.8606190000 
s   1 1.0  
        0.1958570000         1.0000000000 
p   1 1.0  
        0.1958570000         1.0000000000 

 12 0 
s   2 1.0  
        5.4471780000         0.1562850000 
        0.8245470000         0.9046910000 
s   1 1.0  
        0.1831920000         1.0000000000 

 13 0 
s   2 1.0  
        5.4471780000         0.1562850000 
        0.8245470000         0.9046910000 
s   1 1.0  
        0.1831920000         1.0000000000 

[5D]
[9G]
[MO]
 Sym=     1a
 Ene=  0.00000000000000E+00
 Spin= Beta
 Occup= 0.000779
  1       0.015163632739
  2       1.325163595002
  3       0.452986324199
  4      -0.513450763772
  5      -0.125960445035
  6      -2.624438780131
  7      -1.374353159914
  8       0.766906307128
  9       0.023318425391
 10       0.003131332099
 11      -0.006612161396
 12       0.044281963916
 13      -0.038345118718
 14      -0.028178221928
 15      -0.021829899687
 16       0.106086613242
 17      -0.108103497031
 18      -0.093259007206
 19      -0.072657963415
 20      -0.059573259466
 21       0.034805053178
 22       0.121251311713
 23      -0.001969299937
 24       0.013795164479
 25      -0.002828665212
 26      -0.014837921896
 27       0.007370933529
 28       0.005831118867
 29      -0.005902783964
 30       0.051867039644
 31      -0.024962605909
 32      -0.027762674962
 33       0.006611339462
 34      -0.001881920964
 35      -0.049962686758
 36       0.000787993749
 37      -0.012145272519
 38      -0.000863305932
 39      -0.004479391975
 40      -0.000320686018
 41       0.012827067869
 42      -0.001164906476
 43      -0.003043000288
 44       0.000703069168
 45      -0.029960075910
 46      -0.000356086735
 47      -0.022622616198
 48      -0.011045813116
 49      -0.031508487226
 50      -0.068402997812
 51       0.036139385411
 52      -0.025079906130
 53      -0.043761862961
 54       0.662327941107
 55       0.433500923891
 56      -0.235877880722
 57      -0.445233903265
 58      -0.072640404315
 59       0.011353173375
 60       0.331623759696
 61       1.212165208670
 Sym=     1a
 Ene=  1.00000000000000E+00
 Spin= Beta
 Occup= 1.998601
  1      -0.047992765003
  2       0.148102273046
  3      -0.241618142004
  4       0.014074243981
  5      -0.172022473717
  6       0.097921703853
  7       0.015357803532
  8      -0.024223531540
  9       0.026985228252
 10      -0.063155418805
 11       0.154087101281
 12       0.231609842752
 13      -0.061618625124
 14       0.182534337273
 15       0.437496080873
 16       0.238475251376
 17      -0.067485020134
 18       0.187231032599
 19       0.004028695403
 20       0.005868614312
 21      -0.010451914516
 22      -0.013379559524
 23       0.000447192490
 24      -0.000646904798
 25       0.000220669766
 26       0.000942925750
 27       0.000385009344
 28      -0.000114144302
 29       0.000963466128
 30      -0.006227560316
 31      -0.000144494917
 32       0.003171308282
 33       0.003291970888
 34       0.000505670889
 35       0.009692358234
 36       0.001035879649
 37      -0.000582315452
 38      -0.000043996211
 39      -0.000020005121
 40       0.000190998317
 41       0.000034556383
 42       0.000551161974
 43      -0.001260981195
 44      -0.000423963937
 45      -0.002928005717
 46      -0.000360038577
 47      -0.000942266973
 48       0.004373453810
 49       0.007860841732
 50      -0.007569806326
 51       0.019823759946
 52       0.001118124666
 53       0.028732147376
 54      -0.062971703005
 55      -0.029991999184
 56       0.011831860497
 57       0.063201497631
 58       0.000591026465
 59       0.000041349678
 60      -0.029130031006
 61      -0.055134778474
 Sym=     1a
 Ene=  2.00000000000000E+00
 Spin= Beta
 Occup= 0.007203
  1       0.105736680919
  2      -0.327767938696
  3       0.588332636539
  4      -0.050385214149
  5       0.419007323473
  6      -0.818013871285
  7       0.498127842660
  8      -0.024875837741
  9       0.363949156880
 10      -0.133632273464
 11       0.269979263105
 12       0.358770719232
 13      -0.077336666307
 14       0.281924607222
 15       0.854070526722
 16       0.499165873409
 17      -0.103183933487
 18       0.386186832900
 19      -0.003579050348
 20      -0.004599443126
 21       0.006591266967
 22       0.001864464161
 23      -0.000193040969
 24       0.001725299988
 25      -0.000848596604
 26      -0.002081844303
 27      -0.003596939273
 28      -0.000906434977
 29       0.002127716905
 30       0.009381692523
 31      -0.006296051163
 32      -0.006477041389
 33      -0.002694546713
 34       0.007058208268
 35      -0.007699885498
 36      -0.002346467754
 37       0.001913077492
 38      -0.001392482267
 39       0.001006327872
 40      -0.003588543048
 41      -0.012314293047
 42      -0.000137123123
 43       0.003175587038
 44      -0.003360801412
 45      -0.008207331146
 46       0.002422790277
 47       0.017465590300
 48       0.000325256920
 49      -0.007969593752
 50       0.009894682527
 51      -0.082402836974
 52       0.009035407243
 53      -0.025053585261
 54       0.023590201514
 55      -0.043910121974
 56      -0.001103859757
 57      -0.046110745976
 58       0.003450247384
 59      -0.000024287767
 60       0.018773350183
 61       0.045747392065
 Sym=     1a
 Ene=  3.00000000000000E+00
 Spin= Beta
 Occup= 1.999344
  1      -1.003543733619
  2      -0.065319361062
  3       0.000925218917
  4      -0.000853468928
  5       0.001827310910
  6       0.066637349912
  7       0.016516375267
  8      -0.002169407029
  9       0.010429257043
 10      -0.005773603633
 11       0.005335501766
 12       0.015289995935
 13      -0.002094118871
 14       0.011130584770
 15       0.021647970832
 16       0.024565230821
 17      -0.003387709274
 18       0.018548975892
 19      -0.000975074089
 20      -0.000885147039
 21      -0.001937679693
 22      -0.002406444993
 23      -0.000300987411
 24      -0.000424048860
 25       0.000179164519
 26      -0.000107381084
 27       0.000354144868
 28       0.000691435036
 29      -0.000535121895
 30      -0.000314325423
 31       0.000501681368
 32       0.001162228659
 33      -0.000682548925
 34      -0.000448929586
 35      -0.000660499383
 36      -0.000029429022
 37      -0.000249813392
 38       0.000259622080
 39      -0.000215358143
 40       0.000280213223
 41       0.001262832615
 42      -0.000335868810
 43      -0.000796496406
 44       0.000323721819
 45       0.001269975855
 46      -0.000599209756
 47      -0.000365298790
 48       0.000281416194
 49      -0.004178700009
 50      -0.000491603647
 51      -0.000922952135
 52      -0.000131692112
 53      -0.008512559769
 54       0.013730756367
 55      -0.003999219017
 56      -0.000176832372
 57      -0.022722868324
 58      -0.001408964331
 59      -0.001283177592
 60       0.004358833437
 61       0.009961969414
 Sym=     1a
 Ene=  4.00000000000000E+00
 Spin= Beta
 Occup= 0.015794
  1       0.010741190389
  2      -0.592734214300
  3       0.591262221153
  4      -0.100458191214
  5       0.528149541624
  6       0.609535645929
  7      -1.391044989735
  8       0.240610153164
  9      -1.166537713274
 10       0.054647895336
 11      -0.188674095660
 12      -0.011668817266
 13       0.000068391622
 14       0.007134242323
 15      -0.786932711995
 16      -0.002322254832
 17      -0.003032895730
 18       0.035362144748
 19      -0.053820074594
 20      -0.084346780113
 21       0.084663882616
 22       0.133621625537
 23      -0.002743406662
 24       0.000635161170
 25      -0.002447959955
 26      -0.003363392837
 27      -0.001281060791
 28      -0.005858071465
 29      -0.002109613207
 30       0.050982734120
 31       0.007854342001
 32      -0.019150657650
 33      -0.031208354771
 34      -0.005788274010
 35      -0.084550669531
 36      -0.004763128253
 37       0.011015864502
 38      -0.001130752698
 39       0.006830663163
 40      -0.002474326413
 41       0.003212851578
 42      -0.001946234319
 43       0.026521802328
 44       0.004348602916
 45       0.044762677740
 46       0.005709093204
 47      -0.030647617532
 48      -0.083565832052
 49       0.002062067703
 50       0.045909315303
 51       0.053235705916
 52      -0.011768249587
 53      -0.040167787122
 54       0.326331551577
 55       0.532260385256
 56      -0.108352434915
 57      -0.118106681698
 58      -0.008522559658
 59      -0.018129280445
 60       0.082658824708
 61       0.153754844595
 Sym=     1a
 Ene=  5.00000000000000E+00
 Spin= Beta
 Occup= 0.002572
  1       0.015780392294
  2       0.726501025845
  3       0.365099482278
  4       0.909679373583
  5      -0.007743132435
  6      -1.510834927347
  7      -0.690286911067
  8      -1.129616403637
  9      -0.259391668080
 10      -0.002528100691
 11       0.004808912186
 12       0.029493391565
 13       0.062238494510
 14       0.002498179717
 15       0.039501539684
 16       0.069663418573
 17       0.188051239584
 18       0.018348467853
 19      -0.081037828547
 20      -0.072297445577
 21      -0.021893182426
 22       0.022198841654
 23       0.021055638729
 24       0.079476716464
 25      -0.008796511168
 26      -0.025018720130
 27       0.002697488505
 28       0.015369098261
 29      -0.000403792763
 30       0.050666382818
 31      -0.060312823430
 32      -0.121772438754
 33       0.119754853111
 34      -0.009897435857
 35       0.039923134538
 36      -0.012885519020
 37      -0.026739979575
 38      -0.011172217328
 39      -0.006041654932
 40      -0.007368927918
 41      -0.026873226318
 42       0.012576476702
 43       0.006258631281
 44      -0.042932151132
 45      -0.169753236252
 46       0.028520837859
 47       0.012956676624
 48       0.063122775074
 49      -0.024441987013
 50      -0.040614268203
 51       0.019998252654
 52       0.034280348481
 53      -0.046873078672
 54       0.603641246672
 55       0.236791226935
 56       0.349930972421
 57      -0.379188484805
 58       0.021853071694
 59       0.080298204044
 60       0.131334515832
 61       0.429099232431
 Sym=     1a
 Ene=  6.00000000000000E+00
 Spin= Beta
 Occup= 0.002008
  1       0.030959012868
  2       0.808476177598
  3      -0.418251235778
  4      -0.021099128837
  5       0.693651139535
  6      -2.001106227954
  7       1.293108317126
  8      -0.193979797685
  9      -2.466606765669
 10      -0.012475986547
 11       0.034768072532
 12      -0.055823257036
 13       0.007076663476
 14       0.117872060254
 15       0.186162288173
 16      -0.235916216184
 17       0.036419560954
 18       0.432338608450
 19      -0.011622584294
 20       0.170700002734
 21      -0.100190499941
 22       0.025447691434
 23      -0.014758203728
 24      -0.025130886228
 25       0.000325150399
 26       0.002118302375
 27      -0.004818136491
 28       0.001602118870
 29      -0.003965968051
 30       0.050530084400
 31       0.035237958210
 32       0.038547279420
 33      -0.028818580281
 34       0.006591645696
 35      -0.083644599369
 36      -0.005196186913
 37      -0.002984770315
 38      -0.003821518302
 39       0.000422219147
 40       0.002338656558
 41       0.002399599199
 42       0.004134786257
 43       0.021176725650
 44      -0.012506221309
 45      -0.051809105093
 46       0.017402011851
 47       0.001660154161
 48       0.040967044770
 49      -0.061780640646
 50      -0.053154093302
 51      -0.032923651140
 52      -0.002763295147
 53      -0.168350888483
 54       1.947615669934
 55      -0.313075531801
 56      -0.049677579061
 57      -1.245276710272
 58      -0.055634121524
 59       0.100145269007
 60      -0.183830638173
 61      -0.650539868206
 Sym=     1a
 Ene=  7.00000000000000E+00
 Spin= Beta
 Occup= 1.993334
  1      -0.056440562009
  2       0.123380269933
  3       0.295241835350
  4      -0.064321578606
  5      -0.150359528899
  6       0.358255362875
  7       0.173248439903
  8      -0.041044235997
  9      -0.043337020399
 10       0.009487487984
 11      -0.010811059090
 12      -0.038324621714
 13       0.008091213668
 14       0.009664381171
 15      -0.045013088352
 16      -0.047815193846
 17       0.010237412853
 18      -0.004287653056
 19      -0.008899294370
 20      -0.012051360444
 21       0.001978552023
 22      -0.000274044955
 23       0.000537341467
 24       0.008055116835
 25       0.001687205473
 26      -0.002933742042
 27       0.004102513231
 28       0.012711460665
 29      -0.007046831455
 30      -0.007389052870
 31      -0.000493127062
 32      -0.003845416242
 33       0.006911507383
 34      -0.012699939446
 35       0.002651624116
 36      -0.002346541369
 37      -0.002584057372
 38       0.000629087443
 39      -0.000471384462
 40      -0.000484404279
 41       0.004957729053
 42      -0.000128240488
 43      -0.003094531692
 44      -0.002750428140
 45       0.006570391652
 46      -0.000971262992
 47      -0.003334890955
 48      -0.004986215502
 49       0.013651823629
 50      -0.009917326311
 51      -0.042664080974
 52       0.010743350946
 53       0.043466179041
 54      -0.099425746745
 55      -0.011384486683
 56       0.009579873911
 57       0.103585320658
 58      -0.003909919265
 59      -0.005400320047
 60       0.310084951066
 61       0.254343348112
 Sym=     1a
 Ene=  8.00000000000000E+00
 Spin= Beta
 Occup= 0.048018
  1      -0.111162434323
  2       0.216261585213
  3       0.513403549860
  4      -0.114585091544
  5      -0.253112109473
  6       0.770068814701
  7       0.553429563189
  8      -0.116699918895
  9      -0.196957591423
 10       0.003549836831
 11       0.004318571896
 12      -0.053323309997
 13       0.013070225845
 14       0.045175178312
 15       0.003354876076
 16      -0.067136116856
 17       0.015625696764
 18       0.043055820526
 19       0.013118530377
 20       0.004310836619
 21       0.007439603931
 22      -0.007845023484
 23      -0.000410398571
 24      -0.002746335923
 25       0.000237568953
 26      -0.003130807159
 27       0.004862703989
 28      -0.004508696500
 29       0.003531206715
 30       0.002458342636
 31      -0.000335812152
 32       0.001124452263
 33      -0.003935915950
 34       0.012696231571
 35       0.001050305284
 36       0.004025413263
 37       0.001836861822
 38       0.001055787984
 39      -0.001228579750
 40      -0.002267395885
 41       0.006381342870
 42       0.000529973748
 43      -0.003019781894
 44       0.000355781661
 45       0.007227429574
 46       0.001042255731
 47       0.000817209233
 48      -0.001683386575
 49       0.007061190031
 50       0.008194848003
 51      -0.059446028497
 52       0.008478768499
 53       0.002828638974
 54      -0.069890415415
 55      -0.065289439893
 56       0.016814663210
 57       0.070417309436
 58       0.004672959392
 59       0.000878706674
 60      -0.750829064513
 61      -0.787206783684
 Sym=     1a
 Ene=  9.00000000000000E+00
 Spin= Beta
 Occup= 1.990818
  1      -0.005318402849
  2       0.018183165737
  3       0.036267973483
  4       0.279853967999
  5      -0.025754970262
  6       0.000156302608
  7       0.057068000529
  8       0.291137878739
  9      -0.018287561714
 10      -0.003787560046
 11       0.008566849465
 12       0.091066201972
 13       0.388488553657
 14      -0.009861678128
 15       0.032814790539
 16       0.103501662254
 17       0.446670785639
 18      -0.011715623166
 19       0.003921561069
 20       0.007222465393
 21      -0.000602798204
 22       0.002116646684
 23      -0.000625032773
 24      -0.000384440588
 25       0.001404102076
 26      -0.000067353313
 27       0.003415219363
 28       0.005997111065
 29      -0.004127340176
 30      -0.005864872455
 31       0.005677400031
 32       0.005458317231
 33      -0.001739859220
 34      -0.004803208210
 35      -0.001505593567
 36      -0.000357010256
 37      -0.001403525534
 38       0.001358189595
 39      -0.000094119589
 40      -0.000394655482
 41       0.011789548634
 42      -0.001917748993
 43      -0.002573985951
 44       0.000807180513
 45       0.014509928964
 46      -0.003193650831
 47      -0.018762821728
 48      -0.009008398896
 49       0.000170456726
 50      -0.000839002859
 51      -0.006703035661
 52      -0.037693069359
 53       0.002151028077
 54       0.003026437168
 55      -0.014047221105
 56      -0.062345458862
 57       0.002550968868
 58      -0.003749119391
 59      -0.009295485939
 60      -0.001331129730
 61      -0.004147581984
 Sym=     1a
 Ene=  1.00000000000000E+01
 Spin= Beta
 Occup= 0.045959
  1       0.009935536435
  2      -0.034193221730
  3      -0.054719565372
  4      -0.506905647462
  5       0.056322041687
  6      -0.051142881980
  7      -0.071399345338
  8      -0.587099343869
  9       0.065728526541
 10      -0.009056355612
 11       0.017887603275
 12       0.097445030429
 13       0.372205128151
 14      -0.001418980699
 15       0.060608913080
 16       0.122930273934
 17       0.454896794873
 18       0.000267741349
 19      -0.001448618579
 20      -0.007333084315
 21      -0.001900260264
 22      -0.004823585469
 23       0.003043562734
 24      -0.000717269244
 25      -0.002975012003
 26       0.004707233808
 27      -0.007896257704
 28      -0.014063875040
 29       0.009774993151
 30       0.006504450869
 31      -0.006404654649
 32      -0.006774455137
 33       0.001828719999
 34       0.009027276889
 35       0.001965570042
 36       0.001588113622
 37       0.002634533473
 38      -0.004649753887
 39       0.005001520059
 40      -0.005328233015
 41      -0.023987972221
 42       0.002711884210
 43       0.017384442703
 44      -0.002322874304
 45      -0.026084687831
 46       0.004087416135
 47       0.007115661197
 48       0.005359260971
 49      -0.000241161299
 50       0.001442963420
 51       0.007099829435
 52       0.075566406896
 53      -0.001969663932
 54      -0.009464920948
 55       0.013583945743
 56       0.101608745716
 57      -0.001227854069
 58       0.001338199740
 59       0.010522228707
 60      -0.000806717474
 61       0.003174498802
 Sym=     1a
 Ene=  1.10000000000000E+01
 Spin= Beta
 Occup= 1.995585
  1       0.050565678245
  2      -0.155721015680
  3       0.028467789320
  4      -0.021074630107
  5      -0.322041162614
  6      -0.258350389966
  7       0.009004144896
  8      -0.006780991970
  9      -0.142938299938
 10      -0.008880572216
 11       0.010469202182
 12       0.001994546983
 13       0.001086015221
 14       0.036140944892
 15       0.039175101945
 16       0.016201612313
 17      -0.001494534499
 18       0.037599330436
 19       0.038605370195
 20       0.061845007839
 21       0.038995928372
 22       0.060721848707
 23       0.001288763638
 24       0.001452771644
 25       0.000197089863
 26       0.000616373032
 27       0.000715188737
 28       0.000856696724
 29       0.000417174473
 30      -0.006151574701
 31      -0.001502298955
 32      -0.001118477527
 33       0.002335029392
 34      -0.003620067453
 35       0.006063452541
 36       0.000590002295
 37      -0.000372689929
 38      -0.000801569022
 39       0.001002557062
 40      -0.000921745540
 41      -0.006361888275
 42       0.002652395228
 43       0.002127040809
 44       0.000574991954
 45      -0.001927931722
 46      -0.000871080394
 47       0.003986352765
 48       0.000974207782
 49       0.043735501060
 50      -0.119610223328
 51      -0.009133259492
 52       0.008823382104
 53       0.304669365693
 54      -0.315947942042
 55      -0.008963361654
 56       0.008981022808
 57       0.222744573041
 58       0.039935173639
 59       0.063921878967
 60       0.038050842233
 61       0.070892085423
 Sym=     1a
 Ene=  1.20000000000000E+01
 Spin= Beta
 Occup= 0.038694
  1       0.113582023044
  2      -0.318976650322
  3       0.052793767033
  4      -0.038650114310
  5      -0.628240632433
  6      -0.679631951634
  7       0.008611988068
  8      -0.022596698705
  9      -0.526991276788
 10      -0.001823155293
 11      -0.004753426008
 12      -0.028552888044
 13       0.007732365946
 14       0.061185168268
 15      -0.020439483048
 16      -0.022116086360
 17       0.005735201192
 18       0.050144898406
 19       0.002712078638
 20      -0.046968233489
 21       0.004527610622
 22      -0.041699803689
 23       0.001082909716
 24      -0.000868609943
 25       0.000185213681
 26       0.002376048263
 27       0.001981611162
 28       0.000072655567
 29      -0.000072197805
 30      -0.006150629863
 31      -0.002666208942
 32       0.002829471595
 33       0.000774849255
 34      -0.009420375697
 35       0.005170513487
 36       0.001807672412
 37       0.000984441692
 38      -0.000576808820
 39       0.001415226825
 40      -0.000787157962
 41      -0.006237911081
 42       0.000376967128
 43       0.001483862679
 44       0.001731234081
 45      -0.000700420766
 46       0.001501488157
 47       0.003425652136
 48      -0.001137252720
 49      -0.109152716128
 50       0.251326027099
 51       0.017751396561
 52      -0.021742501670
 53      -0.599245331640
 54       0.728460915850
 55       0.026336807507
 56      -0.024208774116
 57      -0.586943122774
 58       0.003164733469
 59      -0.045876822070
 60      -0.008365408362
 61       0.047031810712
 Sym=     1a
 Ene=  1.30000000000000E+01
 Spin= Beta
 Occup= 0.000039
  1      -0.000681140029
  2      -0.023292884135
  3       0.038900352628
  4      -0.009798012532
  5       0.040536654499
  6      -0.300987160974
  7       0.287670045316
  8       0.410407869044
  9       0.078348297615
 10      -0.004098215758
 11      -0.198986645168
 12       0.058601560794
 13       1.011865799703
 14      -0.129532485445
 15       0.451898641250
 16       0.050934184913
 17      -1.145845701610
 18       0.241461026392
 19       0.032709420229
 20       0.030027672723
 21      -0.004369872688
 22       0.011957568914
 23       0.000790283030
 24      -0.030731631632
 25       0.004469389459
 26       0.025066001347
 27      -0.004987080342
 28      -0.011228579783
 29       0.002958910380
 30      -0.068109195313
 31       0.039101205293
 32       0.055482311695
 33      -0.033639239787
 34       0.008764681691
 35       0.014328290989
 36       0.009493288267
 37       0.001142455527
 38       0.005590139963
 39      -0.000811169448
 40       0.002114787020
 41       0.001991612511
 42       0.001252138634
 43      -0.038105193172
 44       0.051941163237
 45       0.023054231550
 46      -0.004263611006
 47       0.005683756995
 48       0.110525700545
 49      -0.001459262571
 50      -0.005085747422
 51       0.003314422118
 52       0.005510895439
 53      -0.003963709514
 54       0.022365482224
 55      -0.100595176053
 56      -0.179155042818
 57      -0.023906745883
 58      -0.038019850657
 59      -0.022494135358
 60       0.000761153973
 61      -0.007824355074
 Sym=     1a
 Ene=  1.40000000000000E+01
 Spin= Beta
 Occup= 1.999917
  1       0.000258577239
  2      -0.003640063527
  3       0.006995012663
  4      -0.000744529642
  5       0.005962124114
  6      -0.030495902470
  7       0.019585134373
  8      -0.003889772211
  9       0.011312859218
 10      -1.012601382320
 11      -0.046247253751
 12      -0.035375264086
 13       0.005130041577
 14      -0.028414256642
 15       0.238024231023
 16      -0.019599398368
 17       0.004029746109
 18      -0.015558782967
 19       0.000083133016
 20       0.000267326464
 21      -0.001241681976
 22      -0.002206873048
 23       0.000048420325
 24       0.000137541066
 25      -0.000030448851
 26       0.000042741200
 27       0.000008261402
 28       0.000097017602
 29      -0.000064879867
 30      -0.000055213797
 31      -0.000053475875
 32       0.000053773825
 33       0.000735267476
 34      -0.000219068606
 35       0.000837616086
 36       0.000017436149
 37      -0.000331704931
 38      -0.000164091926
 39       0.000049090685
 40      -0.000256523450
 41       0.000188451670
 42      -0.000080823016
 43       0.000867983837
 44      -0.000878944079
 45      -0.001062551722
 46      -0.000269174062
 47      -0.001606585356
 48      -0.000389102101
 49       0.000050358181
 50      -0.000727365970
 51      -0.000048645324
 52       0.000076210867
 53       0.000431351976
 54       0.002356560414
 55      -0.004635935873
 56       0.001664858258
 57      -0.000509876853
 58      -0.000201681571
 59       0.000734937297
 60      -0.000347103402
 61      -0.001988549622
 Sym=     1a
 Ene=  1.50000000000000E+01
 Spin= Beta
 Occup= 0.000015
  1       0.028713550507
  2       0.087784512605
  3       0.006224592545
  4       0.016592319428
  5       0.039281563419
  6      -0.630511832527
  7       0.888737079303
  8      -0.189081363175
  9       0.432069983088
 10       0.068853724194
 11      -1.421991837746
 12       0.391058034940
 13      -0.075014050481
 14       0.311437987928
 15       2.073544276485
 16      -0.074772175405
 17       0.044359486798
 18      -0.039576468637
 19       0.049619331821
 20       0.091081012304
 21      -0.069768314114
 22      -0.186316680397
 23       0.000805187323
 24       0.000062315161
 25       0.000428250130
 26       0.002382939203
 27       0.003965258595
 28       0.002890826440
 29      -0.004807214031
 30      -0.022371974676
 31      -0.004798301827
 32       0.021610046755
 33       0.049761828201
 34      -0.014954488788
 35       0.082337061158
 36       0.002747217902
 37      -0.019117387463
 38      -0.002307841072
 39      -0.014241134709
 40       0.012406975942
 41       0.022074971993
 42       0.004289409503
 43       0.020010175161
 44      -0.051900192926
 45      -0.059309131785
 46      -0.017258949298
 47      -0.031396561188
 48       0.017473802374
 49      -0.004599361873
 50      -0.033118773691
 51       0.044766486571
 52      -0.013066079123
 53      -0.000129865460
 54       0.015633856502
 55      -0.471734624339