[Molden Format]
[Title]
CLPOs

[Atoms] AU
C    1   6         -0.0689050534        -1.3675645703         0.1748621406 
O    2   8         -2.0706295850        -1.4460675733        -1.2692741291 
H    3   1          1.3514471232        -1.3533160352         4.0018429083 
H    4   1         -1.9812587670        -0.8725451406         3.6806083630 
H    5   1          1.9075406118         4.6427944330        -2.0666100558 
C    6   6          2.2774450537         2.6809204461        -1.5646005291 
H    7   1          2.5091292570         1.5522626160        -3.2824692983 
H    8   1          3.9897958225         2.5817759646        -0.4240109682 
O    9   8          0.2058932517         1.7727879865        -0.1076160115 
H   10   1         -1.4800901684         1.0083503021        -1.2336622401 
C   11   6         -0.3419213467        -1.8858994410         2.9542770060 
H   12   1         -0.6663589778        -3.9123000165         3.1841376236 
H   13   1          1.7390053866        -2.0151340318        -0.6362839047 
[GTO]
  1 0 
s   3 1.0  
      172.2560000000         0.0617669000 
       25.9109000000         0.3587940000 
        5.5333500000         0.7007130000 
s   2 1.0  
        3.6649800000        -0.3958970000 
        0.7705450000         1.2158400000 
p   2 1.0  
        3.6649800000         0.2364600000 
        0.7705450000         0.8606190000 
s   1 1.0  
        0.1958570000         1.0000000000 
p   1 1.0  
        0.1958570000         1.0000000000 

  2 0 
s   3 1.0  
      322.0370000000         0.0592394000 
       48.4308000000         0.3515000000 
       10.4206000000         0.7076580000 
s   2 1.0  
        7.4029400000        -0.4044530000 
        1.5762000000         1.2215600000 
p   2 1.0  
        7.4029400000         0.2445860000 
        1.5762000000         0.8539550000 
s   1 1.0  
        0.3736840000         1.0000000000 
p   1 1.0  
        0.3736840000         1.0000000000 

  3 0 
s   2 1.0  
        5.4471780000         0.1562850000 
        0.8245470000         0.9046910000 
s   1 1.0  
        0.1831920000         1.0000000000 

  4 0 
s   2 1.0  
        5.4471780000         0.1562850000 
        0.8245470000         0.9046910000 
s   1 1.0  
        0.1831920000         1.0000000000 

  5 0 
s   2 1.0  
        5.4471780000         0.1562850000 
        0.8245470000         0.9046910000 
s   1 1.0  
        0.1831920000         1.0000000000 

  6 0 
s   3 1.0  
      172.2560000000         0.0617669000 
       25.9109000000         0.3587940000 
        5.5333500000         0.7007130000 
s   2 1.0  
        3.6649800000        -0.3958970000 
        0.7705450000         1.2158400000 
p   2 1.0  
        3.6649800000         0.2364600000 
        0.7705450000         0.8606190000 
s   1 1.0  
        0.1958570000         1.0000000000 
p   1 1.0  
        0.1958570000         1.0000000000 

  7 0 
s   2 1.0  
        5.4471780000         0.1562850000 
        0.8245470000         0.9046910000 
s   1 1.0  
        0.1831920000         1.0000000000 

  8 0 
s   2 1.0  
        5.4471780000         0.1562850000 
        0.8245470000         0.9046910000 
s   1 1.0  
        0.1831920000         1.0000000000 

  9 0 
s   3 1.0  
      322.0370000000         0.0592394000 
       48.4308000000         0.3515000000 
       10.4206000000         0.7076580000 
s   2 1.0  
        7.4029400000        -0.4044530000 
        1.5762000000         1.2215600000 
p   2 1.0  
        7.4029400000         0.2445860000 
        1.5762000000         0.8539550000 
s   1 1.0  
        0.3736840000         1.0000000000 
p   1 1.0  
        0.3736840000         1.0000000000 

 10 0 
s   2 1.0  
        5.4471780000         0.1562850000 
        0.8245470000         0.9046910000 
s   1 1.0  
        0.1831920000         1.0000000000 

 11 0 
s   3 1.0  
      172.2560000000         0.0617669000 
       25.9109000000         0.3587940000 
        5.5333500000         0.7007130000 
s   2 1.0  
        3.6649800000        -0.3958970000 
        0.7705450000         1.2158400000 
p   2 1.0  
        3.6649800000         0.2364600000 
        0.7705450000         0.8606190000 
s   1 1.0  
        0.1958570000         1.0000000000 
p   1 1.0  
        0.1958570000         1.0000000000 

 12 0 
s   2 1.0  
        5.4471780000         0.1562850000 
        0.8245470000         0.9046910000 
s   1 1.0  
        0.1831920000         1.0000000000 

 13 0 
s   2 1.0  
        5.4471780000         0.1562850000 
        0.8245470000         0.9046910000 
s   1 1.0  
        0.1831920000         1.0000000000 

[5D]
[9G]
[MO]
 Sym=     1a
 Ene=  0.00000000000000E+00
 Spin= Beta
 Occup= 0.001513
  1       0.053156772121
  2       1.421146051430
  3       0.182269536463
  4       0.823330861355
  5      -0.043364656595
  6      -2.913816710513
  7      -0.075437284387
  8      -1.443329239516
  9      -0.090096875462
 10      -0.023845271049
 11       0.069400936834
 12       0.057657304051
 13       0.046054344807
 14       0.034840530195
 15       0.365004505549
 16       0.149126153753
 17       0.102275493478
 18       0.134709744731
 19      -0.060637060903
 20      -0.004080804703
 21      -0.087580274349
 22      -0.053604906479
 23       0.020873886249
 24       0.096509646299
 25      -0.021477771676
 26      -0.047459958756
 27      -0.015540545745
 28       0.004558645591
 29       0.004910865878
 30       0.228855265111
 31      -0.080224392439
 32      -0.242199216159
 33       0.138654239013
 34      -0.025337687401
 35      -0.011310442099
 36      -0.030807460919
 37      -0.038135541044
 38      -0.044445012742
 39       0.063055658768
 40      -0.005589543161
 41      -0.113396594674
 42       0.032375882289
 43       0.459648739527
 44      -0.029999704257
 45      -0.485750755410
 46       0.179381066984
 47       0.059090939718
 48       0.427192736666
 49      -0.039869120959
 50      -0.074616401275
 51       0.010189144123
 52       0.061028646378
 53      -0.059658082342
 54       0.788706351030
 55       0.014945439822
 56       0.512953472366
 57      -0.404758754898
 58       0.010594129948
 59       0.073917789576
 60       0.141253740267
 61       0.368462067967
 Sym=     1a
 Ene=  1.00000000000000E+00
 Spin= Beta
 Occup= 1.996831
  1      -0.049083436519
  2       0.131627240421
  3      -0.255872758359
  4      -0.029824412113
  5      -0.178611277537
  6       0.166963896507
  7      -0.065156483749
  8      -0.025416821625
  9      -0.031434911958
 10      -0.048815903359
 11       0.122234041631
 12       0.246828257306
 13      -0.038935552498
 14       0.179724095968
 15       0.339481316611
 16       0.275480791104
 17      -0.027730041622
 18       0.195210771482
 19       0.001621534030
 20       0.003569270466
 21      -0.006808850832
 22      -0.007933408766
 23      -0.000201312299
 24      -0.002363475393
 25      -0.000765611748
 26       0.001287237117
 27      -0.002241173984
 28      -0.002619544911
 29       0.000921433554
 30       0.002389264766
 31      -0.003746617159
 32       0.001326272788
 33       0.000416907812
 34       0.000673799043
 35       0.007379032928
 36       0.002316672228
 37      -0.000705787411
 38       0.000626391014
 39       0.003199328273
 40       0.000229141080
 41       0.011694806514
 42      -0.001210763151
 43       0.007384482969
 44      -0.005795829165
 45       0.015141748286
 46      -0.003410308730
 47      -0.010394430103
 48      -0.081051276848
 49       0.008198943282
 50      -0.007601647462
 51       0.025525652551
 52      -0.000230636346
 53       0.031362488877
 54      -0.055088197773
 55      -0.012829889425
 56      -0.000604882194
 57       0.059044692922
 58      -0.001277221134
 59       0.000218966867
 60      -0.025907070621
 61      -0.048137898371
 Sym=     1a
 Ene=  2.00000000000000E+00
 Spin= Beta
 Occup= 0.014698
  1       0.111522270605
  2      -0.255774830365
  3       0.508954251571
  4       0.037964600749
  5       0.348864480463
  6      -0.764465817185
  7       0.551771681971
  8       0.048623970385
  9       0.393239622535
 10      -0.116784204978
 11       0.217916222044
 12       0.366387813774
 13      -0.047199877766
 14       0.269730763467
 15       0.730895120002
 16       0.522570329395
 17      -0.031252244508
 18       0.374294039648
 19      -0.002161930839
 20      -0.002555875275
 21       0.008206045611
 22       0.004076295349
 23      -0.001305782719
 24       0.002171676743
 25      -0.000114015034
 26      -0.001887516566
 27      -0.001324255507
 28       0.004591515978
 29      -0.001111110858
 30       0.004863001589
 31      -0.011398068861
 32      -0.005285862646
 33      -0.003617781978
 34       0.004526512888
 35      -0.004102414695
 36      -0.005429176553
 37       0.003943931747
 38      -0.005922142652
 39       0.011584443237
 40      -0.018677379431
 41      -0.035155241583
 42      -0.002816396407
 43       0.031084165114
 44      -0.023389057886
 45      -0.033021825510
 46      -0.010633785495
 47       0.019123971501
 48       0.050308508625
 49      -0.007507470709
 50       0.014281603039
 51      -0.079802889331
 52      -0.003873638084
 53      -0.034087997786
 54       0.013194713697
 55      -0.051562878091
 56      -0.013444012591
 57      -0.048131931369
 58       0.005670743324
 59      -0.002117685498
 60       0.014430798186
 61       0.039177642300
 Sym=     1a
 Ene=  3.00000000000000E+00
 Spin= Beta
 Occup= 1.999124
  1      -1.002976511472
  2      -0.068575388864
  3       0.002321108771
  4      -0.008341289675
  5       0.003839266858
  6       0.076933747856
  7       0.009396046091
  8       0.003396633947
  9       0.004209610632
 10      -0.003342742238
 11       0.001880508053
 12       0.010798742760
 13       0.000228855578
 14       0.007350465056
 15       0.009080548993
 16       0.018841923315
 17      -0.000473843991
 18       0.013513742718
 19      -0.000981868637
 20      -0.000727074242
 21      -0.001613379170
 22      -0.001816187650
 23      -0.000764817352
 24      -0.001314269267
 25       0.000455596213
 26      -0.000177124452
 27       0.000211681440
 28       0.001641497141
 29      -0.000437257882
 30      -0.000802021781
 31       0.000358650008
 32       0.004007114930
 33      -0.000797664140
 34      -0.000240814285
 35      -0.001076028922
 36      -0.000214176275
 37      -0.000513953268
 38       0.000498774192
 39      -0.001460493789
 40       0.000517707670
 41      -0.000295707032
 42      -0.000508263681
 43      -0.005092566780
 44       0.000889872992
 45      -0.002283662435
 46      -0.000201479753
 47       0.000557662897
 48       0.003858010694
 49      -0.004087146526
 50      -0.000394535892
 51      -0.000274465171
 52       0.001663815370
 53      -0.008360073173
 54       0.015869435541
 55      -0.000298683795
 56       0.002942280665
 57      -0.023475828036
 58      -0.001961016741
 59      -0.001954756480
 60       0.005022142397
 61       0.011850562857
 Sym=     1a
 Ene=  4.00000000000000E+00
 Spin= Beta
 Occup= 0.011251
  1      -0.002702685146
  2      -0.507701821840
  3       0.642163714767
  4       0.179086693932
  5       0.620623996927
  6       0.670616452352
  7      -1.390724147702
  8      -0.057451648591
  9      -1.317524542923
 10       0.041429417092
 11      -0.163564541546
 12      -0.053560515006
 13       0.031162087684
 14      -0.017157962911
 15      -0.691913882691
 16      -0.101590232913
 17       0.109044325878
 18      -0.018109659932
 19      -0.068055420071
 20      -0.103493633524
 21       0.065445895439
 22       0.112347839254
 23       0.008407922692
 24       0.030475375437
 25      -0.005823235419
 26      -0.005195228182
 27      -0.000953893477
 28      -0.010340036345
 29      -0.004940890320
 30       0.036916278852
 31      -0.015707960331
 32      -0.062962930718
 33      -0.008715759597
 34      -0.010265288500
 35      -0.070118974273
 36      -0.002168365909
 37       0.041080331445
 38      -0.003790705631
 39       0.012384957848
 40       0.009480728621
 41       0.003938203680
 42       0.024701168607
 43       0.031317761389
 44       0.042884037043
 45       0.074821282062
 46       0.057911330173
 47      -0.066521728719
 48      -0.403216850504
 49       0.000995897443
 50       0.046933193757
 51       0.065270181948
 52       0.024050686659
 53      -0.032207254385
 54       0.335435042717
 55       0.534474771583
 56       0.086313346770
 57      -0.079786342503
 58       0.025309949233
 59       0.027406803205
 60       0.051844176368
 61       0.079586354057
 Sym=     1a
 Ene=  5.00000000000000E+00
 Spin= Beta
 Occup= 0.001260
  1      -0.038725667629
  2      -1.304774199155
  3      -0.390188252912
  4       0.663370746375
  5      -0.097667422957
  6       2.906849029393
  7       1.037207004827
  8      -1.200510148163
  9       0.637706833508
 10       0.009017692198
 11      -0.001724163081
 12      -0.029041277948
 13       0.046223586355
 14      -0.003473768531
 15      -0.057327925412
 16      -0.078959403788
 17       0.158625255209
 18      -0.039641833951
 19       0.065734382458
 20       0.016703061966
 21      -0.020106980516
 22      -0.126737847847
 23       0.016274043788
 24       0.011977205285
 25       0.002002095863
 26       0.018151889067
 27      -0.004482644648
 28      -0.013243948839
 29       0.012326652989
 30      -0.056838963419
 31       0.033001999889
 32      -0.031287905446
 33       0.001151581286
 34      -0.003777125054
 35       0.065972551936
 36      -0.000854511779
 37      -0.003816552931
 38       0.009940004169
 39       0.020363751334
 40      -0.014786418090
 41      -0.015287589809
 42       0.006766507994
 43      -0.025102270301
 44      -0.059010715819
 45       0.124665734590
 46      -0.040268064468
 47       0.036229152844
 48       0.119682382432
 49       0.042767264072
 50       0.042013735602
 51      -0.050358914524
 52       0.019499003932
 53       0.117162753587
 54      -1.132368514556
 55      -0.389336954592
 56       0.153972493530
 57       0.736745882639
 58       0.072361981705
 59      -0.026553205194
 60      -0.313258621068
 61      -1.019577434655
 Sym=     1a
 Ene=  6.00000000000000E+00
 Spin= Beta
 Occup= 0.004187
  1       0.033747514946
  2       0.464919217847
  3      -0.633526304004
  4      -0.021992491226
  5       0.717818139981
  6      -1.303865932737
  7       1.753377095042
  8      -0.052353359314
  9      -2.163969107667
 10      -0.017560985753
 11       0.051512290856
 12      -0.048030701225
 13       0.000084612379
 14       0.119845823942
 15       0.255136070273
 16      -0.172843688358
 17      -0.010661502239
 18       0.398701258703
 19       0.026853418991
 20       0.168747928602
 21      -0.085143738522
 22       0.007271056297
 23      -0.039887172556
 24      -0.093139420547
 25       0.010698662594
 26       0.030368283980
 27      -0.027829041245
 28       0.004055071120
 29       0.007515512225
 30       0.034901366392
 31       0.034574817325
 32       0.194461432547
 33      -0.026843649507
 34       0.015794928553
 35      -0.060940415991
 36      -0.000773166342
 37      -0.000120712018
 38      -0.007692255247
 39       0.004404242677
 40      -0.024133798410
 41       0.004997068474
 42       0.037733013708
 43       0.071866935744
 44      -0.138029818708
 45      -0.069721343762
 46       0.199664558263
 47       0.007664457018
 48       0.108926877235
 49      -0.043450883623
 50       0.003583107606
 51      -0.038340966668
 52       0.048040156815
 53      -0.162317939646
 54       1.524982880048
 55      -0.340945836230
 56       0.261342690360
 57      -0.954177195147
 58      -0.028043989566
 59       0.073288528514
 60      -0.250091538897
 61      -0.816925272740
 Sym=     1a
 Ene=  7.00000000000000E+00
 Spin= Beta
 Occup= 1.990223
  1      -0.055131645946
  2       0.126698150877
  3       0.289710522776
  4      -0.103790969084
  5      -0.151245169190
  6       0.340995258455
  7       0.176704728475
  8      -0.070414316704
  9      -0.052749882167
 10       0.005646347731
 11      -0.006721737239
 12      -0.030762068203
 13       0.012394375556
 14       0.006919985236
 15      -0.026269517197
 16      -0.039107675262
 17       0.016917121078
 18      -0.003700152500
 19      -0.009931362025
 20      -0.011954686410
 21       0.001389475967
 22       0.000279273824
 23      -0.000993901747
 24       0.010396650616
 25       0.003943040408
 26      -0.010060713422
 27       0.006414413557
 28       0.026709541295
 29      -0.010170338504
 30      -0.010720544999
 31       0.001295791330
 32      -0.003222787566
 33       0.001596636828
 34      -0.013134626481
 35      -0.000839906102
 36      -0.005340807791
 37      -0.002265587982
 38       0.003386321013
 39      -0.004469713825
 40      -0.012104040272
 41       0.021740802552
 42       0.000576183239
 43      -0.013875113603
 44      -0.012780193408
 45       0.027562095980
 46      -0.004818353379
 47      -0.007330084675
 48      -0.031646590881
 49       0.012748596961
 50      -0.013197753990
 51      -0.042507231412
 52       0.009017694783
 53       0.042871604653
 54      -0.086557589677
 55      -0.014811698953
 56      -0.006324580803
 57       0.093106372563
 58      -0.004524624629
 59      -0.002677807529
 60       0.314001492276
 61       0.244300469724
 Sym=     1a
 Ene=  8.00000000000000E+00
 Spin= Beta
 Occup= 0.049777
  1      -0.112019130388
  2       0.181507430178
  3       0.464728925111
  4      -0.169108644849
  5      -0.231647524051
  6       0.825063538617
  7       0.613777638256
  8      -0.202721918297
  9      -0.241534924101
 10       0.001823148858
 11       0.003367375056
 12      -0.045008766806
 13       0.021699494978
 14       0.039734072763
 15       0.007804144412
 16      -0.063139683721
 17       0.030361295072
 18       0.045239366962
 19       0.010838716972
 20       0.006915065519
 21       0.006851654433
 22      -0.007642683538
 23      -0.000050830066
 24      -0.002625115616
 25       0.001371589500
 26      -0.003772343947
 27       0.011648568804
 28      -0.005441836607
 29       0.000886700090
 30       0.000983511868
 31       0.001410187386
 32       0.000577896433
 33      -0.004513186947
 34       0.011782090957
 35       0.001643775917
 36       0.005180819625
 37       0.001888724672
 38       0.005809098064
 39      -0.008589054684
 40      -0.027092294463
 41       0.025581235882
 42       0.011404197553
 43      -0.029788572372
 44      -0.027923716821
 45       0.042318198514
 46       0.007537751693
 47       0.001620035031
 48      -0.000690304160
 49       0.007018308140
 50       0.003230907292
 51      -0.059746618072
 52       0.021564735006
 53       0.005648301321
 54      -0.056752028673
 55      -0.077180824966
 56       0.019905614497
 57       0.061169451187
 58       0.004141312083
 59       0.003780318574
 60      -0.797755089883
 61      -0.807404918933
 Sym=     1a
 Ene=  9.00000000000000E+00
 Spin= Beta
 Occup= 1.981636
  1       0.008328094803
  2      -0.002237474580
  3      -0.015295894602
  4      -0.203215112721
  5       0.005454353011
  6      -0.082779085326
  7       0.003872060557
  8      -0.169850215199
  9       0.017048984635
 10      -0.000568632794
 11      -0.001476966366
 12       0.008597990648
 13       0.012095931321
 14       0.004845545411
 15       0.000347123660
 16       0.017278194734
 17       0.015590495879
 18       0.012099535930
 19      -0.000712744681
 20      -0.000685786888
 21      -0.001864700318
 22      -0.002914929269
 23       0.000612561715
 24      -0.000178094537
 25      -0.011321440559
 26       0.004007229454
 27      -0.002839674421
 28      -0.048918926462
 29       0.021901125155
 30       0.057824973151
 31      -0.024265734191
 32      -0.058643582930
 33       0.039955046937
 34      -0.002179819739
 35      -0.004667883551
 36      -0.003009891827
 37      -0.005339173109
 38       0.060264203739
 39      -0.099616866761
 40      -0.078459867912
 41       0.378413733232
 42      -0.099451542994
 43      -0.389301561723
 44      -0.097271716641
 45       0.452714655484
 46      -0.096857281742
 47       0.016745061712
 48       0.116153149339
 49      -0.004730788324
 50      -0.001623743785
 51       0.002108608960
 52       0.035158695702
 53      -0.004430146632
 54       0.020404083506
 55       0.002271131118
 56       0.041719460947
 57      -0.020168224948
 58       0.002434027641
 59       0.005628952620
 60       0.004165343595
 61       0.017123765413
 Sym=     1a
 Ene=  1.00000000000000E+01
 Spin= Beta
 Occup= 0.180689
  1       0.078161579543
  2      -0.101659279751
  3      -0.052694842922
  4      -0.559941875566
  5       0.011603948925
  6      -0.431497309270
  7      -0.057514812446
  8      -0.720702144782
  9       0.076495074044
 10      -0.006772690935
 11       0.015545558330
 12       0.025160600404
 13       0.056786865726
 14       0.012567558489
 15       0.051605389353
 16       0.036486196801
 17       0.083549483780
 18       0.012286166140
 19       0.000758902458
 20      -0.005836281556
 21       0.000868653680
 22      -0.004881351930
 23       0.002520340301
 24      -0.005367598885
 25      -0.002559674096
 26       0.013396490325
 27      -0.018106172045
 28      -0.003946867062
 29       0.011054293721
 30       0.008322385897
 31      -0.022017211325
 32       0.023036624847
 33       0.003958184466
 34       0.014080018042
 35       0.012611008425
 36       0.007815978605
 37       0.007877693573
 38      -0.063866695510
 39       0.094825585219
 40       0.034239569542
 41      -0.319090638236
 42       0.079677508021
 43       0.373475226300
 44       0.043414378917
 45      -0.435763112997
 46       0.087703305716
 47       0.016710988906
 48       0.063226449580
 49      -0.003742691926
 50       0.006908013547
 51       0.000818330536
 52       0.077514778910
 53       0.006087438858
 54      -0.004008078169
 55       0.007840560012
 56       0.097957134690
 57       0.000880148067
 58      -0.003878288644
 59       0.006044511970
 60       0.007758057825
 61       0.041142274927
 Sym=     1a
 Ene=  1.10000000000000E+01
 Spin= Beta
 Occup= 1.993117
  1       0.048241047587
  2      -0.157331841445
  3       0.038786938170
  4       0.053510155607
  5      -0.322391676715
  6      -0.248485414364
  7       0.012110559579
  8       0.034414384459
  9      -0.160573102202
 10      -0.005383733742
 11       0.006428081839
 12       0.002670391079
 13      -0.007497744005
 14       0.030513785430
 15       0.021880623812
 16       0.012518502721
 17      -0.009940622462
 18       0.031778525263
 19       0.039242656349
 20       0.064130558708
 21       0.038120318332
 22       0.057379517916
 23       0.002457541034
 24       0.005124830963
 25       0.000573279126
 26      -0.001162786120
 27       0.001794254714
 28       0.005406851519
 29       0.000888159535
 30      -0.006660758404
 31       0.000109694700
 32      -0.005303865229
 33       0.005477262707
 34      -0.005068918500
 35       0.005282866534
 36       0.000171529025
 37      -0.002865475613
 38      -0.003168108119
 39       0.004104551509
 40      -0.001037799033
 41      -0.016687548589
 42       0.018252440318
 43       0.009056416701
 44       0.003937742035
 45      -0.014989437931
 46       0.009416811021
 47       0.007519535645
 48       0.022189687846
 49       0.041867562048
 50      -0.125766081039
 51      -0.031636461502
 52      -0.063074350947
 53       0.294755216000
 54      -0.308180988035
 55      -0.032539582604
 56      -0.041783939596
 57       0.205489282771
 58       0.039642938589
 59       0.063185602614
 60       0.039772615370
 61       0.063714268016
 Sym=     1a
 Ene=  1.20000000000000E+01
 Spin= Beta
 Occup= 0.037776
  1       0.111840464082
  2      -0.290661899838
  3       0.073124004790
  4       0.092266942823
  5      -0.579698852923
  6      -0.715263543004
  7       0.037792189326
  8       0.122636546877
  9      -0.615786277314
 10       0.000024327685
 11      -0.003289656117
 12      -0.024363537103
 13      -0.009955751660
 14       0.054323944378
 15      -0.025382083239
 16      -0.027442295986
 17      -0.014290316618
 18       0.049396220420
 19       0.002340029902
 20      -0.044435821565
 21       0.005668538976
 22      -0.040572347930
 23       0.000787836006
 24       0.001173739720
 25       0.002111287625
 26      -0.001350867836
 27       0.006610943286
 28       0.015215184854
 29      -0.000170143334
 30      -0.011015741351
 31      -0.001157441976
 32       0.003721889120
 33       0.001553944934
 34      -0.015322477833
 35       0.002463644328
 36       0.002466834088
 37      -0.000220283660
 38      -0.002565839104
 39       0.006583980265
 40      -0.006296708209
 41      -0.016244633281
 42       0.027243411136
 43       0.004295822760
 44       0.003181131138
 45      -0.001353128586
 46       0.021688764762
 47      -0.000369861761
 48      -0.011063346425
 49      -0.109972130772
 50       0.258429881477
 51       0.062131962922
 52       0.117624830414
 53      -0.598591002032
 54       0.778505442171
 55       0.078031796668
 56       0.112310776804
 57      -0.596226510915
 58       0.001733983539
 59      -0.045686166705
 60      -0.006585702114
 61       0.038638393540
 Sym=     1a
 Ene=  1.30000000000000E+01
 Spin= Beta
 Occup= 0.000081
  1      -0.068770595256
  2      -0.284226809079
  3      -0.150443445855
  4      -0.060175250012
  5      -0.156051260199
  6       2.001400172750
  7      -1.220758175134
  8       0.483283933965
  9      -0.420224311857
 10      -0.024928007172
 11       1.584834292803
 12       0.265297946689
 13       0.388857158878
 14       0.154013452873
 15      -2.830289305469
 16      -0.929086584440
 17      -0.600542034181
 18      -0.668184260109
 19      -0.045776875917
 20      -0.089298543049
 21       0.115824240131
 22       0.163829434005
 23       0.022574828222
 24       0.019096652630
 25       0.010009890392
 26       0.053694360673
 27      -0.004248568131
 28      -0.008885348295
 29      -0.015869995788
 30      -0.218433940574
 31       0.147815726422
 32       0.030756768639
 33      -0.098046505394
 34       0.040979041526
 35      -0.095398504099
 36       0.004683819953
 37       0.028919723798
 38       0.026753021587
 39       0.093743420464
 40      -0.045073150987
 41      -0.030251674142
 42       0.003141671938
 43      -0.479233696863
 44       0.336378712803
 45       0.391292672088
 46      -0.005598708148
 47       0.164985433707
 48       0.290958915404
 49       0.020333853930
 50       0.092438388249
 51      -0.033729858443
 52       0.004717027578
 53       0.036962455759
 54      -0.454818064409
 55       0.508560727260
 56      -0.232510166366
 57       0.254252198547
 58       0.030262587625
 59      -0.050422628182
 60      -0.036696722901
 61       0.138411643758
 Sym=     1a
 Ene=  1.40000000000000E+01
 Spin= Beta
 Occup= 1.957673
  1       0.026235004809
  2      -0.008383655624
  3       0.062368017434
  4       0.014439256704
  5       0.032477017875
  6      -0.134327746376
  7       0.167082920603
  8       0.021694961434
  9       0.093944719599
 10      -0.094536546702
 11       0.209961611767
 12      -0.254441220099
 13      -0.132935357452
 14      -0.101879063642
 15       0.791168901536
 16      -0.272065667120
 17      -0.164966793578
 18      -0.095077379242
 19       0.001633824369
 20       0.003180431985
 21      -0.003802320637
 22      -0.006622917143
 23      -0.001002400655
 24      -0.000553505840
 25      -0.000639805692
 26      -0.000208204557
 27      -0.004418757480
 28       0.002087022215
 29       0.000380381026
 30       0.007947110966
 31      -0.009144498924
 32      -0.000569953942
 33       0.002716634255
 34       0.001634930620
 35       0.004179673529
 36       0.000027844935
 37      -0.000908333541
 38      -0.004879490278
 39       0.005988176706
 40      -0.018093187462
 41      -0.008243453545
 42      -0.008641686007
 43       0.029077630692
 44      -0.030389360054
 45      -0.019330259553
 46      -0.013437219673
 47      -0.018190642984
 48      -0.058171877420
 49      -0.000912476927
 50      -0.000642130859
 51      -0.014384972919
 52      -0.003197855804
 53      -0.002399170512
 54      -0.000581623972
 55      -0.036067323905
 56      -0.001420943808
 57      -0.004938563340
 58      -0.000534639644
 59       0.000093757065
 60      -0.006118094305
 61      -0.011968429659
 Sym=     1a
 Ene=  1.50000000000000E+01
 Spin= Beta
 Occup= 1.999801
  1      -0.001328091877
  2       0.000916267011
  3       0.000550615022
  4       0.001422056919
  5       0.000905446046
  6      -0.019998359671
  7       0.004834403680
  8      -0.000923510716
  9       0.001046921211
 10      -1.008679591844
 11      -0.067542458824
 12      -0.010447386674
 13      -0.005548192049
 14      -0.007141473179
 15       0.163751128712
 16       0.006215042924
 17      -0.000257599652
 18       0.004681509124
 19      -0.000219918807
 20      -0.000411333524
 21      -0.000615249238
 22      -0.000766258515
 23      -0.000060331774
 24       0.000030490411
 25      -0.000088485464
 26      -0.000270393121
 27      -0.000032312849
 28       0.000001020118
 29      -0.000105946989
 30       0.001187910483
 31      -0.000616908755
 32      -0.000406009884
 33       0.000256779846
 34      -0.000346445069
 35       0.000285430336
 36       0.000050467554
 37      -0.000194948121
 38       0.000028185201
 39      -0.000380514546
 40       0.000630246702
 41       0.001114093263
 42       0.000116429386
 43       0.002968591842
 44      -0.000603345257
 45      -0.000740666552
 46       0.000663115041
 47      -0.002487467667
 48      -0.005916605096
 49       0.000163869189
 50      -0.000504540875
 51       0.001560634899
 52      -0.000066251988
 53       0.000236615863
 54       0.003874471958
 55      -0.000196879623