[Molden Format]
[Title]
 created by molden2molden from ts.molden

[Atoms] AU
C    1   6         -0.0689050534        -1.3675645703         0.1748621406 
O    2   8         -2.0706295850        -1.4460675733        -1.2692741291 
H    3   1          1.3514471232        -1.3533160352         4.0018429083 
H    4   1         -1.9812587670        -0.8725451406         3.6806083630 
H    5   1          1.9075406118         4.6427944330        -2.0666100558 
C    6   6          2.2774450537         2.6809204461        -1.5646005291 
H    7   1          2.5091292570         1.5522626160        -3.2824692983 
H    8   1          3.9897958225         2.5817759646        -0.4240109682 
O    9   8          0.2058932517         1.7727879865        -0.1076160115 
H   10   1         -1.4800901684         1.0083503021        -1.2336622401 
C   11   6         -0.3419213467        -1.8858994410         2.9542770060 
H   12   1         -0.6663589778        -3.9123000165         3.1841376236 
H   13   1          1.7390053866        -2.0151340318        -0.6362839047 
[GTO]
  1 0 
s   3 1.0  
      172.2560000000         0.0617669000 
       25.9109000000         0.3587940000 
        5.5333500000         0.7007130000 
s   2 1.0  
        3.6649800000        -0.3958970000 
        0.7705450000         1.2158400000 
p   2 1.0  
        3.6649800000         0.2364600000 
        0.7705450000         0.8606190000 
s   1 1.0  
        0.1958570000         1.0000000000 
p   1 1.0  
        0.1958570000         1.0000000000 

  2 0 
s   3 1.0  
      322.0370000000         0.0592394000 
       48.4308000000         0.3515000000 
       10.4206000000         0.7076580000 
s   2 1.0  
        7.4029400000        -0.4044530000 
        1.5762000000         1.2215600000 
p   2 1.0  
        7.4029400000         0.2445860000 
        1.5762000000         0.8539550000 
s   1 1.0  
        0.3736840000         1.0000000000 
p   1 1.0  
        0.3736840000         1.0000000000 

  3 0 
s   2 1.0  
        5.4471780000         0.1562850000 
        0.8245470000         0.9046910000 
s   1 1.0  
        0.1831920000         1.0000000000 

  4 0 
s   2 1.0  
        5.4471780000         0.1562850000 
        0.8245470000         0.9046910000 
s   1 1.0  
        0.1831920000         1.0000000000 

  5 0 
s   2 1.0  
        5.4471780000         0.1562850000 
        0.8245470000         0.9046910000 
s   1 1.0  
        0.1831920000         1.0000000000 

  6 0 
s   3 1.0  
      172.2560000000         0.0617669000 
       25.9109000000         0.3587940000 
        5.5333500000         0.7007130000 
s   2 1.0  
        3.6649800000        -0.3958970000 
        0.7705450000         1.2158400000 
p   2 1.0  
        3.6649800000         0.2364600000 
        0.7705450000         0.8606190000 
s   1 1.0  
        0.1958570000         1.0000000000 
p   1 1.0  
        0.1958570000         1.0000000000 

  7 0 
s   2 1.0  
        5.4471780000         0.1562850000 
        0.8245470000         0.9046910000 
s   1 1.0  
        0.1831920000         1.0000000000 

  8 0 
s   2 1.0  
        5.4471780000         0.1562850000 
        0.8245470000         0.9046910000 
s   1 1.0  
        0.1831920000         1.0000000000 

  9 0 
s   3 1.0  
      322.0370000000         0.0592394000 
       48.4308000000         0.3515000000 
       10.4206000000         0.7076580000 
s   2 1.0  
        7.4029400000        -0.4044530000 
        1.5762000000         1.2215600000 
p   2 1.0  
        7.4029400000         0.2445860000 
        1.5762000000         0.8539550000 
s   1 1.0  
        0.3736840000         1.0000000000 
p   1 1.0  
        0.3736840000         1.0000000000 

 10 0 
s   2 1.0  
        5.4471780000         0.1562850000 
        0.8245470000         0.9046910000 
s   1 1.0  
        0.1831920000         1.0000000000 

 11 0 
s   3 1.0  
      172.2560000000         0.0617669000 
       25.9109000000         0.3587940000 
        5.5333500000         0.7007130000 
s   2 1.0  
        3.6649800000        -0.3958970000 
        0.7705450000         1.2158400000 
p   2 1.0  
        3.6649800000         0.2364600000 
        0.7705450000         0.8606190000 
s   1 1.0  
        0.1958570000         1.0000000000 
p   1 1.0  
        0.1958570000         1.0000000000 

 12 0 
s   2 1.0  
        5.4471780000         0.1562850000 
        0.8245470000         0.9046910000 
s   1 1.0  
        0.1831920000         1.0000000000 

 13 0 
s   2 1.0  
        5.4471780000         0.1562850000 
        0.8245470000         0.9046910000 
s   1 1.0  
        0.1831920000         1.0000000000 

[5D]
[9G]
[MO]
 Sym=     1a
 Ene= -0.00000000000000E+00
 Spin= Alpha
 Occup=-0.000000
  1       0.064017525445
  2       0.713975183058
  3       0.133541367701
  4       0.129288422521
  5       0.160337129073
  6      -2.683223936610
  7       1.578755748472
  8      -0.554312224332
  9       0.273905594002
 10       0.002556948804
 11      -1.286799732972
 12      -0.215854560936
 13      -0.095454383731
 14      -0.139697689100
 15       2.685105794474
 16       0.869760374893
 17       0.247427633364
 18       0.715176003509
 19       0.219394621685
 20       0.619565075192
 21      -0.223682400379
 22       0.235454817010
 23      -0.009079296771
 24      -0.017109411345
 25      -0.000499283352
 26       0.003433621863
 27       0.021271156128
 28       0.019535369701
 29       0.039116591151
 30       0.222810653475
 31       0.418964155864
 32       0.083507390142
 33      -0.037789163895
 34       0.006382914299
 35      -0.056165633968
 36       0.054937454607
 37      -0.481987272479
 38      -0.024945925156
 39      -0.473022580971
 40       0.172785491656
 41       0.158171272557
 42       0.066378368153
 43       1.169618196464
 44      -0.302589495151
 45      -0.467891929077
 46      -0.195171157220
 47      -0.211547950910
 48      -0.000579249552
 49      -0.002361400917
 50       0.253218865915
 51       0.052034535193
 52      -0.063191499333
 53       0.026695219370
 54      -0.300906899330
 55      -0.834190827849
 56       0.215640090545
 57      -0.806463335631
 58      -0.028872132254
 59       0.194281873116
 60      -0.112937888895
 61      -0.113139338773
 Sym=     1a
 Ene= -0.00000000000000E+00
 Spin= Alpha
 Occup=-0.000000
  1       0.069468997827
  2      -0.882298215124
  3      -0.218663385413
  4      -0.027000685300
  5      -0.129620989950
  6       0.993665377502
  7       0.791890954892
  8      -0.018647912492
  9       1.286213540405
 10      -0.031379247849
 11      -0.479281532655
 12       0.109496705989
 13      -0.020356717545
 14       0.071315978245
 15       1.318199342659
 16       0.339116232979
 17       0.216290263808
 18       0.078407195130
 19       0.158512054950
 20      -0.287725321514
 21       0.070797177850
 22      -0.364455142248
 23      -0.046026294611
 24      -0.103698838513
 25      -0.018682232987
 26      -0.019499601057
 27       0.022145679146
 28      -0.062404471464
 29       0.064831275960
 30       0.137352276732
 31      -0.695953532638
 32       0.025350517316
 33       0.115932398144
 34      -0.122891755228
 35       0.283267316936
 36       0.015391034938
 37       0.319475614966
 38      -0.004380682946
 39       0.300038286682
 40      -0.026342965132
 41      -0.181216662069
 42      -0.026893742571
 43      -0.478958485526
 44      -0.429009485967
 45      -0.007900700530
 46       0.073669774275
 47       0.302605119333
 48      -0.806652086569
 49      -0.005337652991
 50       0.103696948862
 51       0.092095321823
 52       0.057359000602
 53      -0.224376981010
 54      -0.579851760050
 55      -0.490964128944
 56      -0.164001317901
 57       0.861514333282
 58       0.067899207190
 59      -0.210437614033
 60      -0.148103349210
 61       0.237818438598
 Sym=     1a
 Ene= -0.00000000000000E+00
 Spin= Alpha
 Occup=-0.000000
  1       0.047975818248
  2      -0.236309067922
  3       0.164308546852
  4      -0.026202933645
  5      -0.042285288364
  6      -0.065958815671
  7      -1.182514964585
  8      -0.530402162812
  9       0.459313367230
 10      -0.010285546014
 11       0.068929279950
 12      -0.030999403858
 13      -0.017697202650
 14       0.107809342291
 15      -0.233241483698
 16       0.088832624507
 17       0.380290757989
 18      -0.307588563660
 19      -0.155360906662
 20      -0.599021130210
 21       0.050981253149
 22      -0.150938377616
 23       0.101047309715
 24      -0.046051333778
 25       0.003952459946
 26      -0.232057742193
 27       0.066599277377
 28       0.001538024056
 29      -0.209864584529
 30       0.215630891951
 31       0.472712752328
 32      -0.024982614916
 33      -0.061892502261
 34      -0.075501761264
 35      -0.227586801582
 36       0.008798627119
 37      -0.318585032182
 38       0.024781454414
 39      -1.165400458653
 40      -0.080866021779
 41      -0.039011911623
 42       0.218536594367
 43       1.766920832238
 44       0.133948517219
 45      -0.163033920938
 46      -0.536318091155
 47      -0.279143166435
 48      -0.451617876770
 49      -0.002591527267
 50       0.020410933431
 51      -0.048604136642
 52       0.013769928691
 53       0.005868522964
 54      -0.285006733301
 55       0.668542180230
 56       0.677964617984
 57       0.505983141236
 58       0.089395098810
 59       0.541760304605
 60      -0.072653597508
 61       0.988064614047
 Sym=     1a
 Ene= -0.00000000000000E+00
 Spin= Alpha
 Occup=-0.000000
  1      -0.020271536926
  2      -0.412258009127
  3      -0.477602079692
  4       0.268582972402
  5       0.188128744750
  6       0.915864676619
  7       1.362001815356
  8      -0.465723730848
  9       0.198336707612
 10      -0.026941561150
 11       0.158248294078
 12       0.091576963764
 13       0.016240911850
 14       0.017925329901
 15       0.190330546632
 16       0.016591634486
 17       0.023338676666
 18       0.023551467253
 19      -0.095660560047
 20       0.142062226782
 21      -0.075662642381
 22      -0.416435001316
 23       0.095944524486
 24       0.266304792650
 25       0.039496621770
 26       0.201346692946
 27      -0.173804368363
 28      -0.019676177363
 29       0.080095514526
 30      -0.741115050304
 31       0.632973160069
 32       0.041878787853
 33       0.076830582539
 34       0.201980632348
 35       0.179424051578
 36       0.079306059263
 37      -0.279942642158
 38       0.009316563372
 39      -0.364352766579
 40      -0.097451328766
 41      -0.027346470062
 42       0.042095081197
 43       0.624631934448
 44       0.090744848031
 45       0.149317903186
 46      -0.274099852992
 47      -0.251040311268
 48       0.447407141412
 49       0.009048867598
 50      -0.721025468669
 51       0.216927643064
 52      -0.145248088612
 53       0.418623879789
 54       0.934103655870
 55      -0.823699352006
 56      -0.158181187882
 57       0.045133933205
 58      -0.263274647122
 59      -0.404484136751
 60       0.222272746213
 61      -1.188663374002
 Sym=     1a
 Ene= -0.00000000000000E+00
 Spin= Alpha
 Occup=-0.000000
  1      -0.024793274480
  2      -0.002282467153
  3       0.326667403980
  4      -0.258786564800
  5       0.087840962428
  6      -0.576186031054
  7      -1.373063436996
  8       1.145393606574
  9       0.772339597803
 10       0.014846202543
 11      -0.218324403346
 12      -0.354184917203
 13      -0.025192751120
 14       0.077140134700
 15       0.075067464067
 16       0.625816288955
 17      -0.196158053735
 18      -0.349543512647
 19      -0.210017663534
 20       0.028491452494
 21       0.054435135070
 22      -0.071742292749
 23       0.010207875257
 24       0.110330683348
 25       0.014682521001
 26      -0.269191829031
 27      -0.097561479988
 28      -0.058713458654
 29      -0.011763064228
 30       0.242065964758
 31       0.319735259379
 32      -0.001663502662
 33       0.099277931022
 34      -0.078304542681
 35       0.086073739296
 36       0.131529725448
 37      -0.442933163810
 38      -0.010362558713
 39       0.376196928960
 40       0.000465262052
 41      -0.087805207057
 42       0.180168073748
 43      -0.549553407786
 44       0.170232551056
 45       0.367986320674
 46      -0.354198156584
 47       0.096774159292
 48      -0.223427572347
 49       0.011890579618
 50      -0.568820060889
 51      -0.084493825491
 52      -0.154985541218
 53       0.336642280741
 54       0.553784135653
 55       0.324688647060
 56      -0.567227913103
 57       0.035724422967
 58      -0.238129694994
 59      -0.388630370920
 60       0.026033789433
 61       1.469543697155
 Sym=     1a
 Ene= -0.00000000000000E+00
 Spin= Alpha
 Occup=-0.000000
  1      -0.018605437145
  2       0.015253871302
  3       0.105762511778
  4      -0.152497652047
  5      -0.099216528550
  6       0.527985199051
  7      -0.063321585902
  8       0.797816978611
  9       0.438217292687
 10      -0.020349783086
 11       0.162532807703
 12       0.007712760329
 13       0.137172320670
 14       0.128944615076
 15      -0.111148140418
 16       0.026996265438
 17      -0.342113141627
 18      -0.150360842425
 19       0.138256638550
 20       0.384443459574
 21       0.165773609457
 22      -0.099385430565
 23       0.019708115758
 24       0.287107166838
 25       0.022435329266
 26      -0.121473230319
 27      -0.058010067830
 28       0.061304047392
 29      -0.127094599985
 30      -0.218288847246
 31       0.477629072024
 32      -0.147728606361
 33       0.264984560433
 34      -0.077577562304
 35       0.244489165419
 36      -0.015000835146
 37      -0.375201404198
 38       0.041838235525
 39      -0.530225431914
 40      -0.146946550792
 41      -0.110219274450
 42       0.035005083075
 43       0.363610218576
 44       0.122230590772
 45       0.397504603778
 46      -0.166464367978
 47      -0.131227107218
 48       0.070586199848
 49      -0.030906166334
 50       0.396570604710
 51       0.020366542746
 52       0.403603106231
 53      -0.118326336355
 54      -0.106907263574
 55      -0.423004612783
 56      -1.487071612432
 57       0.258151093748
 58       0.323892542984
 59      -1.522603926635
 60       0.010562600071
 61       0.062111866780
 Sym=     1a
 Ene= -0.00000000000000E+00
 Spin= Alpha
 Occup=-0.000000
  1       0.024990974905
  2       0.055767418600
  3      -0.001042843451
  4       0.274513249403
  5      -0.000917067015
  6      -0.446064914845
  7      -0.335641545786
  8      -1.005046067446
  9       0.482731418467
 10       0.021174956113
 11       0.008400732054
 12      -0.125285443972
 13      -0.118860344325
 14       0.028429666412
 15      -0.133109392567
 16       0.189229173766
 17       0.216352344205
 18      -0.174181160669
 19      -0.014905740592
 20       0.723588680921
 21      -0.188706106597
 22      -0.154897161359
 23       0.101213586011
 24      -0.255075237549
 25      -0.026574197916
 26       0.378189985507
 27       0.242205361130
 28      -0.172780551067
 29      -0.033150497983
 30      -0.393819003825
 31      -0.755660715199
 32       0.228256087277
 33      -0.058439485804
 34      -0.065225705387
 35       0.113808183184
 36       0.020017919701
 37       0.508853194086
 38      -0.000794886365
 39      -0.093032606589
 40      -0.016213894149
 41       0.189186502548
 42       0.039617981979
 43       0.196696551778
 44       0.160896038739
 45      -0.695551828409
 46       0.293416936929
 47       0.033971830865
 48       0.419043497398
 49      -0.001032169733
 50      -0.070183035666
 51      -0.064881662142
 52       0.213220361049
 53       0.146238314793
 54       0.069208637792
 55      -0.587863259155
 56      -0.554870723904
 57       0.092380879295
 58       0.300460938361
 59      -1.200821013147
 60      -0.049066845172
 61       0.488916399993
 Sym=     1a
 Ene= -0.00000000000000E+00
 Spin= Alpha
 Occup=-0.000000
  1      -0.046820191175
  2      -0.203749012351
  3       0.187943820139
  4      -0.100157975318
  5       0.226693218645
  6       0.484194579852
  7       0.186599338994
  8       0.595934946700
  9      -0.212220310764
 10      -0.003223468934
 11      -0.249377375777
 12      -0.130476026992
 13       0.073910208601
 14       0.105691402919
 15       0.351061027459
 16       0.198124696164
 17      -0.120183184282
 18      -0.012631674083
 19       0.111632169015
 20      -0.153187263481
 21      -0.153320729434
 22       0.108415899603
 23       0.175863016493
 24      -0.382887158537
 25       0.031933488886
 26       0.286055628025
 27       0.404063069369
 28      -0.085362692235
 29      -0.181240335511
 30      -0.972344274239
 31      -1.137063415778
 32       0.196857949476
 33      -0.300048209789
 34       0.267982136880
 35      -0.242241286000
 36      -0.081108993261
 37       1.484742213914
 38       0.040604409508
 39      -0.313949500056
 40       0.042266363125
 41      -0.077591621908
 42       0.063422349778
 43      -0.005896508157
 44      -0.091673681516
 45       0.326351207373
 46      -0.157352120440
 47      -0.178464053620
 48      -0.328462586767
 49       0.024899669390
 50      -0.186455232934
 51      -0.159021324790
 52      -0.027829234536
 53       0.231922877566
 54       0.126867322082
 55       0.080644819732
 56       0.010478524485
 57      -0.178720807810
 58       0.011857806822
 59       0.190030903422
 60       0.028006201525
 61      -0.406490959217
 Sym=     1a
 Ene= -0.00000000000000E+00
 Spin= Alpha
 Occup=-0.000000
  1      -0.038350292192
  2       0.407921337420
  3      -0.141157722573
  4      -0.234962830692
  5       0.058444339338
  6      -0.172429623231
  7      -0.453779534557
  8       0.105475084647
  9       0.277583940977
 10       0.018680488012
 11      -0.059718745319
 12       0.260222503138
 13       0.222714359857
 14      -0.358112624559
 15      -0.007802394958
 16      -0.404741337612
 17      -0.089555148410
 18       0.014933043824
 19       0.119164781887
 20      -0.187858975809
 21       0.019934101386
 22       0.354901283948
 23      -0.114210884840
 24       0.188327400859
 25      -0.013978860480
 26      -0.049025592281
 27      -0.194713455059
 28       0.031173633181
 29       0.257251205800
 30       0.338037222659
 31      -0.494115131272
 32      -0.270206215491
 33      -0.015141260045
 34       0.034159101872
 35      -0.130916003665
 36       0.059072626494
 37       0.228579976088
 38       0.030890397233
 39      -0.190066905908
 40       0.201681582250
 41       0.235078433569
 42      -0.113212582928
 43      -0.021618690906
 44      -0.653774214749
 45      -0.524741013173
 46       0.269583818712
 47      -0.085706579341
 48      -0.451250457015
 49       0.010363095272
 50       0.474268881236
 51       0.083008678899
 52      -0.091820277567
 53       0.365759061712
 54      -0.840574113831
 55       0.186458852850
 56      -0.267690463979
 57       0.082942433636
 58      -0.142093829822
 59       0.010532335449
 60      -0.072363354759
 61       0.558820527661
 Sym=     1a
 Ene= -0.00000000000000E+00
 Spin= Alpha
 Occup=-0.000000
  1      -0.004544361426
  2      -0.033183122591
  3      -0.086028227959
  4       0.136873181955
  5      -0.265741055934
  6      -0.135798014046
  7      -0.048108490222
  8       0.393488294319
  9       0.289924375868
 10       0.007070099937
 11       0.079130558829
 12      -0.123585177218
 13       0.240882811131
 14      -0.188253133875
 15      -0.148418145955
 16       0.054186258424
 17      -0.440990974832
 18       0.094729899610
 19       0.201653658611
 20      -0.030177231571
 21      -0.054387684830
 22      -0.095192372131
 23      -0.267295562280
 24      -0.679077719348
 25       0.031510307391
 26      -0.088162928007
 27       0.174263603770
 28      -0.578732327963
 29       0.183649145201
 30      -0.194124108345
 31      -0.263922790654
 32       1.488639745675
 33      -0.434677057170
 34      -0.003912631695
 35       0.491593006537
 36       0.351884520872
 37       0.015769623662
 38       0.023016080443
 39      -0.227295829067
 40      -0.197024729402
 41      -0.045917052275
 42      -0.164719866556
 43       0.227101454466
 44       0.537891417587
 45       0.088314960000
 46       0.060505262058
 47      -0.049627142741
 48       0.377991915533
 49       0.002009595684
 50       0.019903423318
 51       0.150231215307
 52      -0.085311724010
 53      -0.193997301143
 54      -0.178345761315
 55      -0.309776373795
 56       0.022674271261
 57       0.086139501160
 58      -0.108358457508
 59       0.212457180740
 60      -0.051650990854
 61       0.587489050236
 Sym=     1a
 Ene= -0.00000000000000E+00
 Spin= Alpha
 Occup=-0.000000
  1      -0.021036661340
  2       0.155751785118
  3       0.004508051485
  4       0.163421306976
  5      -0.006093956893
  6       0.100551794038
  7      -0.193860003898
  8      -0.256233580959
  9       0.327881737104
 10       0.001999448824
 11       0.050630637785
 12      -0.135379252960
 13      -0.313260560395
 14      -0.093042617623
 15      -0.070153156361
 16       0.150149143040
 17       0.281115481894
 18      -0.068716933581
 19       0.563214763198
 20      -0.459505858720
 21      -0.265934825988
 22       0.190719577300
 23       0.046922504951
 24       0.079975288653
 25      -0.064651259144
 26      -0.355101183176
 27       0.036129679604
 28      -0.005751014617
 29       0.104746151824
 30       0.871438322997
 31      -0.075396323628
 32      -0.432136970500
 33       0.409963523703
 34      -0.148764365049
 35       0.022395792388
 36      -0.285055514636
 37      -0.313157572020
 38       0.040893799992
 39       0.032999930020
 40      -0.310297567817
 41      -0.263735099964
 42       0.360097143254
 43      -0.441017613891
 44       0.011138685048
 45       0.169739178163
 46      -0.195048281436
 47       0.055576064931
 48      -0.023490554026
 49       0.027606273466
 50       0.111098189533
 51       0.212700412092
 52      -0.160976834987
 53       0.034815552637
 54      -0.560104708955
 55      -0.260753126199
 56       0.455916908707
 57       0.108206277352
 58       0.129105815794
 59       0.340040112524
 60       0.338969007878
 61      -0.185995732460
 Sym=     1a
 Ene= -0.00000000000000E+00
 Spin= Alpha
 Occup=-0.000000
  1      -0.013256898528
  2      -0.236214491687
  3       0.116139408909
  4       0.141255177136
  5       0.418912233462
  6       0.300421989633
  7       0.202746456018
  8      -0.309035453778
  9      -1.047704955779
 10      -0.020910930251
 11      -0.007480507194
 12      -0.409929960679
 13       0.220061845055
 14       0.007155960764
 15      -0.012304492245
 16       0.285734867399
 17       0.213674088983
 18       0.108663746366
 19      -0.107672986197
 20       0.232647586366
 21      -0.374398297048
 22       0.201825146076
 23      -0.081467248669
 24       0.227057132018
 25      -0.017357677626
 26      -0.072602952469
 27      -0.227658652992
 28       0.057910806933
 29       0.218355069515
 30       0.435241608827
 31      -0.026481255343
 32      -0.403218418442
 33      -0.226716656138
 34      -0.216082994661
 35      -0.127381993197
 36       0.173004522472
 37      -0.162111130009
 38      -0.026701933203
 39       0.196977560003
 40      -0.084846667227
 41      -0.090703410877
 42      -0.295288489605
 43      -0.045432902160
 44      -0.395583845251
 45       0.030460481214
 46       0.416986631595
 47      -0.265461547981
 48      -0.516061423658
 49      -0.012716667580
 50      -0.072580150011
 51       0.156053487879
 52       0.111279015863
 53      -0.081112944478
 54       0.611088252548
 55      -0.301367778707
 56       0.025070183816
 57      -0.128598297189
 58       0.174692108620
 59      -0.347080076034
 60      -0.130291425194
 61      -0.491837728839
 Sym=     1a
 Ene= -0.00000000000000E+00
 Spin= Alpha
 Occup=-0.000000
  1      -0.027112546821
  2       0.094038655612
  3      -0.214870353755
  4       0.080708244147
  5       0.184714340642
  6      -0.204467704973
  7       0.155242102638
  8       0.131532818277
  9       0.141675321332
 10       0.002645832077
 11       0.013915513705
 12       0.094664063711
 13       0.291253639034
 14      -0.140742203414
 15       0.002364172567
 16      -0.040499191056
 17      -0.405831405256
 18       0.114688878094
 19       0.253943406780
 20      -0.058071421846
 21       0.098702072260
 22      -0.267369023449
 23       0.012334034295
 24      -0.228728413101
 25      -0.057631144285
 26       0.175294931789
 27       0.130399537509
 28       0.162854095817
 29      -0.086580894642
 30       0.269683717546
 31       0.289441497563
 32      -0.079752826423
 33      -0.009518526865
 34      -0.242228677593
 35      -0.032947769487
 36      -0.322874415034
 37      -0.222772998366
 38       0.004772379590
 39       0.134089917164
 40      -0.275244102869
 41      -0.026707540317
 42      -0.340293174024
 43      -0.272705575510
 44       0.318470991653
 45       0.249662604312
 46       0.212101860433
 47       0.034493077430
 48       0.392829307166
 49       0.078249757856
 50      -0.157706365541
 51      -0.230492946070
 52      -0.077476254776
 53       0.197931306837
 54      -0.258587249070
 55      -0.010091873686
 56       0.469468849195
 57      -0.085695946532
 58       0.481100698718
 59       0.192693661531
 60      -0.221389441277
 61       0.473644684002
 Sym=     1a
 Ene= -0.00000000000000E+00
 Spin= Alpha
 Occup=-0.000000
  1      -0.058599684984
  2       0.081021166624
  3      -0.203590720159
  4       0.084518990369
  5       0.097773934622
  6       0.400333890792
  7       0.313604736238
  8      -0.023909575448
  9      -0.399385239638
 10       0.016929981620
 11      -0.150265616575
 12       0.052462712217
 13      -0.216663753544
 14      -0.367624377437
 15       0.106784135383
 16      -0.248666431017
 17       0.273722767301
 18       0.376758598328
 19      -0.451509513257
 20      -0.097972515276
 21      -0.176781630510
 22       0.184050059248
 23       0.090395880131
 24      -0.392703543823
 25       0.029452388257
 26      -0.162023587786
 27       0.054425621762
 28      -0.095945501056
 29      -0.265196206802
 30      -0.184710681104
 31      -0.053070750926
 32       0.358334492266
 33      -0.169895381568
 34      -0.308723308786
 35       0.397269065704
 36       0.400921909726
 37      -0.056522691614
 38      -0.022808621168
 39       0.134559002405
 40      -0.219615956572
 41      -0.267271793134
 42       0.152027124876
 43       0.056318855897
 44       0.457386686057
 45       0.490167076027
 46      -0.195790453421
 47       0.257230251905
 48      -0.283839273973
 49      -0.048044133234
 50       0.289816509701
 51      -0.080326947438
 52       0.119025350453
 53       0.346116822035
 54       0.143569611099
 55       0.371883421125
 56       0.109499884245
 57      -0.067703602094
 58       0.281764621595
 59      -0.246019571318
 60      -0.037164644649
 61      -0.388339185340
 Sym=     1a
 Ene= -0.00000000000000E+00
 Spin= Alpha
 Occup=-0.000000
  1       0.020038864881
  2      -0.128143817935
  3       0.029469691396
  4       0.086140099517
  5      -0.249069436982
  6      -0.091792704391
  7       0.030815035553
  8       0.190874325804
  9       0.081591386945
 10       0.007985871477
 11       0.049934868940
 12      -0.102404814670
 13       0.076367897330
 14      -0.126643564337
 15      -0.105112429973
 16       0.121226902442
 17      -0.358227830142
 18       0.147644897206
 19      -0.384133046648
 20       0.208621080170
 21      -0.496167501910
 22       0.166042962392
 23       0.331455022694
 24      -0.212029172629
 25      -0.026790540701
 26       0.429740119540
 27      -0.284616304142
 28       0.057739335483
 29       0.064337244092
 30      -0.200816430353
 31       0.330426456249
 32      -0.265680864103
 33      -0.174052207368
 34       0.200002474271
 35      -0.434103541534
 36      -0.088010208021
 37       0.051223279327
 38       0.056080726868
 39      -0.235091049550
 40       0.091031438156
 41      -0.231753533581
 42      -0.174451835981
 43       0.052649786004
 44       0.023841853232
 45       0.442959100051
 46       0.259923709528
 47       0.347028391056
 48       0.223374328186
 49      -0.077688846389
 50       0.194579275234
 51       0.092013153428
 52      -0.300149102524
 53      -0.059902459093
 54       0.133461646983
 55      -0.167197024081
 56       0.276978455918
 57       0.044530137027
 58      -0.045034705622
 59      -0.131900900518
 60      -0.002128099602
 61       0.169405117863
 Sym=     1a
 Ene= -0.00000000000000E+00
 Spin= Alpha
 Occup=-0.000000
  1      -0.053718716881
  2       0.040785273436
  3       0.110857586389
  4       0.179542118258
  5      -0.024394126905
  6       0.200369512879
  7      -0.197359090694
  8      -0.108572442969
  9       0.090514797992
 10       0.001961505215
 11      -0.045379125772
 12      -0.344784091625
 13      -0.231868734325
 14      -0.127232721877
 15       0.009533729841
 16       0.296516405802
 17       0.303766837093
 18       0.108816877979
 19       0.114719319108
 20      -0.550188384224
 21       0.454969251351
 22       0.048105837925
 23       0.173520270430
 24      -0.109725205991
 25       0.008640288549
 26       0.027638324955
 27       0.025412491076
 28      -0.157004474729
 29       0.235320217041
 30      -0.139350115009
 31      -0.024877462462
 32       0.033186098252
 33      -0.335501246328
 34       0.291040417117
 35      -0.352593207098
 36      -0.412793879602
 37       0.556484093905
 38       0.004716506703
 39      -0.018441445960
 40      -0.152265927009
 41      -0.247184455420
 42      -0.399849334606
 43       0.122068628743
 44       0.218692476686
 45       0.331501030722
 46       0.456949792361
 47       0.194935127276
 48      -0.134270506559
 49      -0.000518981285
 50       0.151680164837
 51      -0.056220318656
 52       0.195100663317
 53       0.149995270410