[Molden Format]
[Title]
CLPOs

[Atoms] AU
C    1   6         -3.9404149773        -0.3521715863         0.6416292746 
O    2   8         -4.0869376980        -0.1415826388         2.9224109425 
O    3   8         -5.2099467849        -0.2702464185        -1.2934936907 
N    4   7         -1.1262062340        -0.8691415204        -0.5770428973 
H    5   1         -1.6550910790        -0.6133425377        -2.4182262986 
H    6   1         -0.5966311456        -2.7228124863        -0.3714203903 
C    7   6          0.9191516159         0.8203861534         0.2240841948 
H    8   1          0.6774980292         1.0808006348         2.2711868115 
C    9   6          3.3972034082        -0.5817338672        -0.1735084971 
O   10   8          3.5416909941        -2.8121841800        -0.6947862448 
O   11   8          5.4101284074         0.9172792609         0.1866454073 
H   12   1          6.9267998697        -0.1079590586        -0.0122886317 
C   13   6          0.7654082114         3.3861595687        -1.1074131365 
H   14   1         -1.0646122341         4.2707430743        -0.7296032212 
H   15   1          2.2555227968         4.6313592271        -0.4092157877 
H   16   1          0.9910127224         3.1801430024        -3.1565188896 
[GTO]
  1 0 
s   6 1.0  
     3047.5249000000         0.0018347000 
      457.3695100000         0.0140373000 
      103.9486900000         0.0688426000 
       29.2101550000         0.2321844000 
        9.2866630000         0.4679413000 
        3.1639270000         0.3623120000 
s   3 1.0  
        7.8682724000        -0.1193324000 
        1.8812885000        -0.1608542000 
        0.5442493000         1.1434564000 
p   3 1.0  
        7.8682724000         0.0689991000 
        1.8812885000         0.3164240000 
        0.5442493000         0.7443083000 
s   1 1.0  
        0.1687144000         1.0000000000 
p   1 1.0  
        0.1687144000         1.0000000000 
d   1 1.0  
        0.8000000000         1.0000000000 
s2   1 1.0  
        0.8000000000         1.0000000000 
s   1 1.0  
        0.0438000000         1.0000000000 
p   1 1.0  
        0.0438000000         1.0000000000 

  2 0 
s   6 1.0  
     5484.6717000000         0.0018311000 
      825.2349500000         0.0139501000 
      188.0469600000         0.0684451000 
       52.9645000000         0.2327143000 
       16.8975700000         0.4701930000 
        5.7996353000         0.3585209000 
s   3 1.0  
       15.5396160000        -0.1107775000 
        3.5999336000        -0.1480263000 
        1.0137618000         1.1307670000 
p   3 1.0  
       15.5396160000         0.0708743000 
        3.5999336000         0.3397528000 
        1.0137618000         0.7271586000 
s   1 1.0  
        0.2700058000         1.0000000000 
p   1 1.0  
        0.2700058000         1.0000000000 
d   1 1.0  
        0.8000000000         1.0000000000 
s2   1 1.0  
        0.8000000000         1.0000000000 
s   1 1.0  
        0.0845000000         1.0000000000 
p   1 1.0  
        0.0845000000         1.0000000000 

  3 0 
s   6 1.0  
     5484.6717000000         0.0018311000 
      825.2349500000         0.0139501000 
      188.0469600000         0.0684451000 
       52.9645000000         0.2327143000 
       16.8975700000         0.4701930000 
        5.7996353000         0.3585209000 
s   3 1.0  
       15.5396160000        -0.1107775000 
        3.5999336000        -0.1480263000 
        1.0137618000         1.1307670000 
p   3 1.0  
       15.5396160000         0.0708743000 
        3.5999336000         0.3397528000 
        1.0137618000         0.7271586000 
s   1 1.0  
        0.2700058000         1.0000000000 
p   1 1.0  
        0.2700058000         1.0000000000 
d   1 1.0  
        0.8000000000         1.0000000000 
s2   1 1.0  
        0.8000000000         1.0000000000 
s   1 1.0  
        0.0845000000         1.0000000000 
p   1 1.0  
        0.0845000000         1.0000000000 

  4 0 
s   6 1.0  
     4173.5110000000         0.0018348000 
      627.4579000000         0.0139950000 
      142.9021000000         0.0685870000 
       40.2343300000         0.2322410000 
       12.8202100000         0.4690700000 
        4.3904370000         0.3604550000 
s   3 1.0  
       11.6263580000        -0.1149610000 
        2.7162800000        -0.1691180000 
        0.7722180000         1.1458520000 
p   3 1.0  
       11.6263580000         0.0675800000 
        2.7162800000         0.3239070000 
        0.7722180000         0.7408950000 
s   1 1.0  
        0.2120313000         1.0000000000 
p   1 1.0  
        0.2120313000         1.0000000000 
d   1 1.0  
        0.8000000000         1.0000000000 
s2   1 1.0  
        0.8000000000         1.0000000000 
s   1 1.0  
        0.0639000000         1.0000000000 
p   1 1.0  
        0.0639000000         1.0000000000 

  5 0 
s   3 1.0  
       18.7311370000         0.0334946000 
        2.8253937000         0.2347269500 
        0.6401217000         0.8137573300 
s   1 1.0  
        0.1612778000         1.0000000000 

  6 0 
s   3 1.0  
       18.7311370000         0.0334946000 
        2.8253937000         0.2347269500 
        0.6401217000         0.8137573300 
s   1 1.0  
        0.1612778000         1.0000000000 

  7 0 
s   6 1.0  
     3047.5249000000         0.0018347000 
      457.3695100000         0.0140373000 
      103.9486900000         0.0688426000 
       29.2101550000         0.2321844000 
        9.2866630000         0.4679413000 
        3.1639270000         0.3623120000 
s   3 1.0  
        7.8682724000        -0.1193324000 
        1.8812885000        -0.1608542000 
        0.5442493000         1.1434564000 
p   3 1.0  
        7.8682724000         0.0689991000 
        1.8812885000         0.3164240000 
        0.5442493000         0.7443083000 
s   1 1.0  
        0.1687144000         1.0000000000 
p   1 1.0  
        0.1687144000         1.0000000000 
d   1 1.0  
        0.8000000000         1.0000000000 
s2   1 1.0  
        0.8000000000         1.0000000000 
s   1 1.0  
        0.0438000000         1.0000000000 
p   1 1.0  
        0.0438000000         1.0000000000 

  8 0 
s   3 1.0  
       18.7311370000         0.0334946000 
        2.8253937000         0.2347269500 
        0.6401217000         0.8137573300 
s   1 1.0  
        0.1612778000         1.0000000000 

  9 0 
s   6 1.0  
     3047.5249000000         0.0018347000 
      457.3695100000         0.0140373000 
      103.9486900000         0.0688426000 
       29.2101550000         0.2321844000 
        9.2866630000         0.4679413000 
        3.1639270000         0.3623120000 
s   3 1.0  
        7.8682724000        -0.1193324000 
        1.8812885000        -0.1608542000 
        0.5442493000         1.1434564000 
p   3 1.0  
        7.8682724000         0.0689991000 
        1.8812885000         0.3164240000 
        0.5442493000         0.7443083000 
s   1 1.0  
        0.1687144000         1.0000000000 
p   1 1.0  
        0.1687144000         1.0000000000 
d   1 1.0  
        0.8000000000         1.0000000000 
s2   1 1.0  
        0.8000000000         1.0000000000 
s   1 1.0  
        0.0438000000         1.0000000000 
p   1 1.0  
        0.0438000000         1.0000000000 

 10 0 
s   6 1.0  
     5484.6717000000         0.0018311000 
      825.2349500000         0.0139501000 
      188.0469600000         0.0684451000 
       52.9645000000         0.2327143000 
       16.8975700000         0.4701930000 
        5.7996353000         0.3585209000 
s   3 1.0  
       15.5396160000        -0.1107775000 
        3.5999336000        -0.1480263000 
        1.0137618000         1.1307670000 
p   3 1.0  
       15.5396160000         0.0708743000 
        3.5999336000         0.3397528000 
        1.0137618000         0.7271586000 
s   1 1.0  
        0.2700058000         1.0000000000 
p   1 1.0  
        0.2700058000         1.0000000000 
d   1 1.0  
        0.8000000000         1.0000000000 
s2   1 1.0  
        0.8000000000         1.0000000000 
s   1 1.0  
        0.0845000000         1.0000000000 
p   1 1.0  
        0.0845000000         1.0000000000 

 11 0 
s   6 1.0  
     5484.6717000000         0.0018311000 
      825.2349500000         0.0139501000 
      188.0469600000         0.0684451000 
       52.9645000000         0.2327143000 
       16.8975700000         0.4701930000 
        5.7996353000         0.3585209000 
s   3 1.0  
       15.5396160000        -0.1107775000 
        3.5999336000        -0.1480263000 
        1.0137618000         1.1307670000 
p   3 1.0  
       15.5396160000         0.0708743000 
        3.5999336000         0.3397528000 
        1.0137618000         0.7271586000 
s   1 1.0  
        0.2700058000         1.0000000000 
p   1 1.0  
        0.2700058000         1.0000000000 
d   1 1.0  
        0.8000000000         1.0000000000 
s2   1 1.0  
        0.8000000000         1.0000000000 
s   1 1.0  
        0.0845000000         1.0000000000 
p   1 1.0  
        0.0845000000         1.0000000000 

 12 0 
s   3 1.0  
       18.7311370000         0.0334946000 
        2.8253937000         0.2347269500 
        0.6401217000         0.8137573300 
s   1 1.0  
        0.1612778000         1.0000000000 

 13 0 
s   6 1.0  
     3047.5249000000         0.0018347000 
      457.3695100000         0.0140373000 
      103.9486900000         0.0688426000 
       29.2101550000         0.2321844000 
        9.2866630000         0.4679413000 
        3.1639270000         0.3623120000 
s   3 1.0  
        7.8682724000        -0.1193324000 
        1.8812885000        -0.1608542000 
        0.5442493000         1.1434564000 
p   3 1.0  
        7.8682724000         0.0689991000 
        1.8812885000         0.3164240000 
        0.5442493000         0.7443083000 
s   1 1.0  
        0.1687144000         1.0000000000 
p   1 1.0  
        0.1687144000         1.0000000000 
d   1 1.0  
        0.8000000000         1.0000000000 
s2   1 1.0  
        0.8000000000         1.0000000000 
s   1 1.0  
        0.0438000000         1.0000000000 
p   1 1.0  
        0.0438000000         1.0000000000 

 14 0 
s   3 1.0  
       18.7311370000         0.0334946000 
        2.8253937000         0.2347269500 
        0.6401217000         0.8137573300 
s   1 1.0  
        0.1612778000         1.0000000000 

 15 0 
s   3 1.0  
       18.7311370000         0.0334946000 
        2.8253937000         0.2347269500 
        0.6401217000         0.8137573300 
s   1 1.0  
        0.1612778000         1.0000000000 

 16 0 
s   3 1.0  
       18.7311370000         0.0334946000 
        2.8253937000         0.2347269500 
        0.6401217000         0.8137573300 
s   1 1.0  
        0.1612778000         1.0000000000 

[5D]
[9G]
[MO]
 Sym=     1a
 Ene=  0.00000000000000E+00
 Spin= Beta
 Occup= 0.006208
  1      -0.108541064657
  2       0.994829379605
  3      -0.265330943327
  4       0.024380011923
  5       0.013137914880
  6      -0.704077073774
  7       0.996212981306
  8      -0.199906932664
  9      -1.110233103913
 10      -0.912889630927
 11      -0.002212220162
 12       0.054817464660
 13       0.429507683100
 14      -0.434859500036
 15      -1.035620515405
 16       1.025893540915
 17      -0.620077388993
 18       0.113765289519
 19       0.148280905430
 20      -0.053520576839
 21       0.292537192450
 22      -0.026688575100
 23      -0.037632052693
 24      -0.328965626308
 25       1.104035228252
 26      -0.124650835574
 27      -0.069255026498
 28      -0.433444970686
 29       0.155853613012
 30      -0.060375672504
 31       0.072842317598
 32      -0.022818589135
 33       0.016971402156
 34      -0.043643555766
 35      -0.203743288762
 36       0.245440831556
 37      -0.015481943079
 38      -0.050709659949
 39      -0.019037586186
 40       0.147165754772
 41       0.085470604676
 42      -0.010448765795
 43       0.137295662791
 44       0.103838239981
 45       0.005079733558
 46      -0.020472533379
 47       0.106250083707
 48      -0.121375894737
 49       0.133601703011
 50      -0.049548810778
 51       0.118365994476
 52      -0.021077815948
 53       0.012574665488
 54      -0.371697280493
 55       0.234043680564
 56      -0.018808227420
 57      -0.106591849910
 58       0.027978710008
 59       0.021328164362
 60       0.031897816642
 61      -0.020558369941
 62      -0.019718961348
 63      -0.669932819580
 64       0.405885625941
 65       0.060106187361
 66      -0.190088107491
 67       0.006279340939
 68       0.066816340640
 69      -0.010092039551
 70      -0.042718812604
 71       0.011490871943
 72       0.075665950261
 73      -0.196031891733
 74       0.345946869384
 75      -0.102656081495
 76      -0.006125495749
 77      -0.042683175562
 78       0.000379376005
 79       0.014927648107
 80       0.098204709412
 81      -0.000236422535
 82      -0.008579409770
 83       0.021853548310
 84       0.008254878037
 85      -0.006643609556
 86      -0.028973777948
 87      -0.074358671209
 88      -0.012776564039
 89       0.127721761591
 90       0.004113246642
 91      -0.007616352691
 92      -0.004048337386
 93       0.004491457005
 94      -0.000835409450
 95      -0.013431516916
 96       0.037404885104
 97       0.265588401043
 98       0.024604851988
 99      -0.032575571288
100      -0.024870474344
101      -0.036529383311
102       0.002905994540
103       0.000643100190
104      -0.006476501901
105      -0.006221975101
106      -0.003774311050
107       0.046210349976
108       0.070319376714
109       0.122383291173
110       0.007137733434
111      -0.001773354444
112       0.003110700362
113      -0.001980632769
114       0.000161249096
115       0.003654110894
116       0.019083070185
117      -0.219047141919
118      -0.029559537155
119      -0.078059354897
120       0.012837630612
121      -0.000911468182
122       0.003486525503
123      -0.006605392675
124      -0.001011480100
125      -0.001277816894
126       0.054196245044
127       0.008827955534
128       0.005551457202
129       0.007506201557
130       0.006337933968
131      -0.001334437396
132      -0.001116850728
133      -0.001357606483
134       0.000101011602
135      -0.003925147784
136      -0.085623681663
137       0.039708546182
138      -0.004819068290
139       0.005688636942
140       0.002006103187
141       0.008513177815
142       0.000782969189
143      -0.001411108032
144      -0.000071730525
145      -0.075931738160
146       0.028660097483
147       0.022404189758
148       0.008224082025
149       0.000920407398
150      -0.000918952787
151      -0.000642945938
152      -0.002105543805
153      -0.003691561793
154       0.007321931929
155      -0.053226835255
156       0.052494780023
157      -0.014498346708
158      -0.004200110318
159       0.004377850488
160      -0.021293435890
161      -0.000570735182
162      -0.002466718353
163       0.007289304693
164      -0.005602033546
165      -0.000306601122
166       0.080055288751
167      -0.009529166875
168      -0.010964249346
169       0.005921770581
170      -0.002589413090
171       0.002115609380
172       0.001435240607
173      -0.000703586758
174      -0.002622739590
175      -0.001005332388
176       0.029957722179
177       0.011364915806
178      -0.027593253688
179      -0.004927055182
180      -0.001367479299
181      -0.019248857765
182      -0.005672372293
183       0.000121776503
184      -0.003512060253
185       0.018228143034
 Sym=     1a
 Ene=  1.00000000000000E+00
 Spin= Beta
 Occup= 0.000440
  1       0.032540602189
  2      -0.275789388181
  3      -0.195966470266
  4       0.061125051113
  5       0.089858160103
  6       3.158138177136
  7      -0.515822195676
  8       0.028124148199
  9      -0.026561447025
 10       0.769870788793
 11       0.282829664724
 12       0.055181765427
 13       0.050143672338
 14       0.013445267931
 15       0.611900824391
 16      11.610967413409
 17       0.610600947475
 18       0.959830864634
 19       0.024692478367
 20      -0.011657675408
 21      -0.176841282652
 22      -0.051536495958
 23       0.023034221121
 24       0.180678614690
 25      -0.086189394425
 26      -0.153377495512
 27       0.091067745844
 28       0.861678322604
 29      -0.282714894532
 30       0.070224132689
 31      -0.055586053152
 32       0.016879109055
 33       0.005930913352
 34      -0.315077919380
 35      -3.313696139610
 36       1.085903707738
 37      -0.093162508772
 38       0.146273133174
 39      -0.027082566808
 40      -0.159510768518
 41      -0.119540952289
 42       0.000607143481
 43      -0.097874349897
 44      -0.012982307055
 45      -0.587710606308
 46       0.108760961960
 47      -0.692296442891
 48      -0.098737739488
 49      -0.252207885122
 50       0.027743833569
 51      -0.089460345340
 52       0.013567890439
 53      -0.435140647648
 54      -3.181220710968
 55       0.831726412073
 56      -0.428895613820
 57      -0.598537068930
 58       0.021693694705
 59       0.071676917776
 60       0.001906376239
 61       0.007520052053
 62      -0.007863142909
 63      -0.674274412818
 64      -0.078133260953
 65      -0.073425958698
 66       0.063103155168
 67      -0.002721849992
 68      -0.004006385788
 69      -0.003160383810
 70      -0.003285999944
 71      -0.009078679319
 72       0.130979348627
 73       1.258180055603
 74       2.890541553008
 75       1.194428049264
 76      -0.362761527172
 77       0.025542311589
 78       0.204468862294
 79      -0.070149879872
 80       0.464701732820
 81      -0.005423835721
 82       0.064709642036
 83       0.002933807141
 84      -0.022980638633
 85      -0.029727867420
 86      -0.037458901079
 87      -0.174769725640
 88       0.049037015448
 89      -0.038714843326
 90       0.010051370393
 91       0.005802254137
 92       0.004079603766
 93      -0.009085702427
 94       0.017929746500
 95      -0.056452749723
 96      -3.833758448715
 97       6.527239030981
 98       1.250605939061
 99       0.438194728344
100      -0.072761805389
101       0.301348893441
102       0.009353055910
103      -0.038650034115
104      -0.018247707368
105      -0.011347191702
106      -0.013816030774
107      -0.101348886107
108       0.139819025518
109       0.323705880254
110       0.142527026173
111      -0.014698334350
112       0.001821341261
113      -0.002568481323
114       0.016921027630
115       0.010621035323
116       0.087953488824
117      -4.373131531713
118      -0.194271346542
119      -1.541814926116
120      -0.397480089614
121      -0.009349685801
122      -0.026700628136
123      -0.013475334886
124      -0.003959603790
125      -0.000628159624
126       0.307939420841
127       0.044147332403
128       0.056348361385
129      -0.005544616804
130       0.008422001323
131      -0.008467554417
132      -0.002125394104
133      -0.010414734993
134      -0.001428354227
135      -0.059175850406
136      -0.519497911551
137      -0.001690078289
138      -0.030854793450
139       0.102433169536
140      -0.005300193173
141      -0.017496905825
142       0.013430072826
143      -0.013048832963
144      -0.000641343704
145       0.030814318901
146       0.014335483822
147       0.097239838146
148       0.009939094013
149       0.002842845876
150       0.002613468623
151       0.003688440477
152      -0.008153106843
153      -0.009983333369
154      -0.054922200931
155       0.019404587005
156       0.512996958876
157      -0.431400940094
158      -0.140618434729
159       0.041260833546
160      -0.306734608377
161      -0.007020960348
162      -0.032459916874
163       0.025521027328
164      -0.036217793203
165      -0.025018740656
166       0.100705149712
167      -0.099257487601
168       0.227709348999
169       0.154028303403
170      -0.012347861665
171       0.009748822600
172       0.001555150894
173       0.020181055853
174      -0.009724860073
175      -0.009307548434
176      -0.425393059404
177       0.041594000402
178       0.014011131126
179      -0.299290960587
180      -0.057829087521
181       0.102018988845
182      -0.014573522172
183      -0.023166617322
184      -0.003247738521
185       0.193009570793
 Sym=     1a
 Ene=  2.00000000000000E+00
 Spin= Beta
 Occup= 0.004408
  1      -0.005563375956
  2       2.239236497111
  3       0.409383562991
  4      -0.174295600589
  5      -0.133924170258
  6      -3.574492804701
  7      -1.928484542689
  8       0.502183531961
  9       0.897414109352
 10       0.221654374157
 11       0.204375834432
 12      -0.068582994536
 13       0.176549362722
 14       0.155043727371
 15      -0.649078502779
 16      -0.894335479022
 17      -0.228328404199
 18      -0.097566901616
 19       0.040860499829
 20       0.003286762065
 21       0.051313953620
 22       0.080954698289
 23      -0.015222187850
 24       0.012812884376
 25      -0.065638199040
 26       0.255847085006
 27      -0.038864308983
 28      -0.040213327487
 29      -0.083497440860
 30       0.030450406536
 31      -0.045536962032
 32      -0.025046583290
 33       0.000035562946
 34       0.015539848364
 35       0.251567619550
 36       0.061775692579
 37      -0.021410738846
 38      -0.071598088574
 39      -0.005717203542
 40       0.056982873230
 41       0.058033293491
 42      -0.020988677721
 43      -0.080254743059
 44       0.255273611018
 45       0.251522880822
 46      -0.046716985320
 47      -0.068132718667
 48      -0.091640878513
 49      -0.078309885658
 50       0.018248334871
 51      -0.052963184365
 52       0.013116057509
 53      -0.042732708129
 54       0.243190178993
 55       0.084862998750
 56       0.025515135686
 57       0.036941225807
 58      -0.065279044320
 59       0.000938547771
 60      -0.142765525794
 61      -0.002234189291
 62       0.063570397187
 63       1.491642881097
 64      -1.075250260503
 65      -0.001344542249
 66       0.357475688014
 67      -0.010006143343
 68      -0.029057567365
 69      -0.002860208287
 70       0.035707743201
 71      -0.010774012430
 72      -0.156337329023
 73       0.228574073288
 74      -0.506809470845
 75      -0.120160338605
 76       0.091884570643
 77      -0.007620237294
 78      -0.165561804628
 79      -0.019620444984
 80      -0.079654912367
 81      -0.020271026115
 82      -0.093439298167
 83       0.019211813745
 84      -0.025078200095
 85      -0.000302833651
 86       0.397878535382
 87      -0.346061341248
 88       0.092071322016
 89      -0.154301714038
 90       0.000126594932
 91       0.004579256815
 92       0.003665993871
 93      -0.008916524467
 94       0.006475625030
 95      -0.019124260032
 96       0.535444201417
 97      -0.705671479101
 98      -0.153839621722
 99      -0.093114820814
100      -0.006307459260
101      -0.109341229173
102      -0.005678126041
103      -0.050689181188
104       0.000812504004
105       0.011672988112
106       0.009469945210
107       0.175062316601
108      -0.198965861558
109      -0.022648408381
110       0.003095572530
111      -0.001346247540
112      -0.003290668316
113       0.003368311387
114       0.002251198848
115      -0.004586898870
116       0.010977512234
117       0.455410281237
118       0.025646006160
119       0.161338603862
120       0.056154743395
121      -0.001240808119
122      -0.008278626269
123       0.007747808073
124       0.001268867012
125       0.003085542351
126      -0.010777079082
127       0.002442942372
128       0.008703195368
129      -0.012613356499
130      -0.008467721972
131       0.003153661300
132       0.000925749767
133       0.002677670856
134       0.001292949531
135      -0.003893256460
136       0.054738022093
137      -0.007676415294
138       0.002885069215
139      -0.021527898678
140      -0.001740033824
141      -0.007984374144
142      -0.000921692795
143       0.002831695538
144       0.001496482091
145       0.061839573673
146      -0.031800171129
147      -0.027750498317
148      -0.002689385677
149      -0.000810724959
150      -0.000131668155
151       0.001491333681
152      -0.000361776615
153       0.003612999968
154      -0.003240434981
155       0.004980076858
156      -0.065478424732
157       0.043918044598
158       0.018524582363
159       0.001868963603
160       0.058445160673
161       0.007257461136
162       0.018376171295
163       0.019813701575
164       0.031077466294
165      -0.012306652201
166      -0.326208389345
167       0.050179188189
168       0.058130683926
169      -0.050849601263
170       0.003399664760
171       0.001487113327
172       0.001673590616
173       0.000533529296
174      -0.004404841964
175       0.000886592722
176       0.047904257832
177      -0.002899722989
178      -0.014219889154
179       0.042876643247
180       0.012182407381
181       0.016322247527
182       0.012956968182
183       0.023009168182
184       0.009399441512
185      -0.030971540342
 Sym=     1a
 Ene=  3.00000000000000E+00
 Spin= Beta
 Occup= 1.997783
  1      -0.051225128931
  2       0.263941439956
  3      -0.215936978855
  4       0.017017209193
  5      -0.237946847255
  6       0.087531712539
  7      -0.011130492235
  8       0.010927122982
  9       0.094646116225
 10       0.020705791862
 11       0.057851753401
 12      -0.004352179291
 13       0.004010679819
 14       0.001065693013
 15      -0.012721306043
 16       0.007826746165
 17       0.014773052697
 18      -0.001368540093
 19      -0.002609917459
 20       0.010954626017
 21      -0.013460984603
 22       0.008279626761
 23       0.001114180802
 24       0.032066710885
 25      -0.123889849883
 26      -0.003666867968
 27       0.004002655412
 28       0.051730062520
 29       0.000591753582
 30       0.010199055206
 31      -0.001018704640
 32      -0.000452399271
 33       0.001135583477
 34       0.019143998587
 35      -0.022513690478
 36      -0.010944465345
 37       0.001801880021
 38       0.001651200957
 39      -0.054019334095
 40       0.279585379440
 41       0.199246329187
 42      -0.015148091043
 43       0.323096887952
 44       0.226044662170
 45       0.094744758053
 46      -0.009137017732
 47       0.150666705099
 48       0.009291770060
 49       0.030641526724
 50      -0.002755592445
 51       0.004102617647
 52      -0.001219540141
 53      -0.004911345833
 54      -0.064611532807
 55      -0.013490466376
 56      -0.000090129671
 57       0.015741966950
 58       0.002632929063
 59      -0.018164942265
 60       0.052236158206
 61      -0.008929346813
 62       0.001140957240
 63       0.031163503699
 64      -0.041696215004
 65       0.016041786082
 66      -0.044792739318
 67      -0.001409124651
 68      -0.000955148694
 69      -0.000543473463
 70       0.008521456047
 71      -0.003880388763
 72      -0.007606193194
 73       0.011786708492
 74      -0.054847377609
 75       0.014378276787
 76      -0.009824796591
 77      -0.029201420556
 78      -0.023626335767
 79       0.003764323410
 80      -0.001825887912
 81       0.000083163852
 82       0.003361155303
 83      -0.006655751997
 84       0.003909247387
 85       0.002926676891
 86       0.022417083500
 87       0.044629837120
 88      -0.045012668909
 89       0.008724687486
 90      -0.000986129242
 91      -0.000507825889
 92       0.001346964494
 93      -0.000152375423
 94       0.000474310848
 95       0.002176701379
 96       0.008704319719
 97      -0.008917538938
 98      -0.008894672916
 99      -0.005596309571
100      -0.002640727695
101      -0.003650144235
102      -0.000587137404
103      -0.001210465024
104       0.006122487315
105       0.000922170911
106       0.000325775410
107      -0.029487252646
108       0.000149040325
109      -0.033520136457
110      -0.012685401799
111       0.000274340942
112       0.000555014233
113      -0.000195849760
114      -0.000562600421
115      -0.000481954536
116      -0.006483037650
117       0.002700585783
118       0.005390182371
119       0.006074925817
120       0.002016629877
121       0.000424673995
122      -0.002532031613
123       0.001940078082
124      -0.000451892519
125      -0.000231447699
126      -0.011631965360
127      -0.002707578621
128      -0.002448531207
129       0.000910824640
130      -0.000786380391
131       0.000100039992
132       0.000627606218
133       0.000205085197
134      -0.000297368865
135       0.001132136497
136       0.011691971383
137      -0.005860267339
138       0.000628445958
139       0.000771158713
140      -0.000625600817
141      -0.000176224228
142      -0.000389232158
143      -0.000164423112
144      -0.000628574836
145       0.017421033287
146      -0.007443158949
147      -0.001800196049
148       0.000641281693
149      -0.000087902695
150      -0.000071296509
151      -0.000361576663
152       0.000631897320
153       0.000636053036
154      -0.001965423605
155      -0.000783213617
156      -0.003698052526
157       0.001860733576
158       0.000675489542
159       0.000166783551
160       0.003704985591
161      -0.000291608115
162       0.000577271046
163      -0.002782403774
164      -0.002342272584
165      -0.000407747198
166       0.028593047671
167       0.002464639536
168      -0.003256167360
169       0.012980923222
170       0.000174929784
171      -0.000163058260
172      -0.000617999692
173      -0.000085910888
174       0.000547979589
175       0.000612396008
176       0.004132064375
177      -0.001529302293
178       0.000847063127
179       0.000957273340
180      -0.001555761826
181      -0.008373585743
182      -0.001770235695
183      -0.005774302600
184       0.001610565408
185      -0.003566252306
 Sym=     1a
 Ene=  4.00000000000000E+00
 Spin= Beta
 Occup= 0.080932
  1       0.086875243327
  2      -0.614780849272
  3       0.519533413129
  4      -0.033844934180
  5       0.672710184800
  6      -0.302968480012
  7       0.058902094656
  8      -0.025945710948
  9      -0.189780837225
 10      -0.036775764636
 11      -0.091344118997
 12       0.006725404320
 13      -0.000030556166
 14      -0.003859853582
 15      -0.154834317697
 16       0.129433910513