[Molden Format]
[Atoms] (AU)
C    1    6        -3.940414977285      -0.352171586334       0.641629274595
O    2    8        -4.086937697957      -0.141582638772       2.922410942494
O    3    8        -5.209946784884      -0.270246418496      -1.293493690652
N    4    7        -1.126206233982      -0.869141520362      -0.577042897281
H    5    1        -1.655091079016      -0.613342537723      -2.418226298606
H    6    1        -0.596631145567      -2.722812486303      -0.371420390345
C    7    6         0.919151615905       0.820386153390       0.224084194788
H    8    1         0.677498029177       1.080800634774       2.271186811549
C    9    6         3.397203408206      -0.581733867160      -0.173508497125
O   10    8         3.541690994088      -2.812184180033      -0.694786244827
O   11    8         5.410128407384       0.917279260903       0.186645407294
H   12    1         6.926799869684      -0.107959058625      -0.012288631713
C   13    6         0.765408211378       3.386159568721      -1.107413136547
H   14    1        -1.064612234061       4.270743074296      -0.729603221213
H   15    1         2.255522796753       4.631359227092      -0.409215787656
H   16    1         0.991012722374       3.180143002411      -3.156518889577
[GTO]
  1 0
 s    6  1.00
     3047.5249000000         0.0018347000
      457.3695100000         0.0140373000
      103.9486900000         0.0688426000
       29.2101550000         0.2321844000
        9.2866630000         0.4679413000
        3.1639270000         0.3623120000
 s    3  1.00
        7.8682724000        -0.1193324000
        1.8812885000        -0.1608542000
        0.5442493000         1.1434564000
 p    3  1.00
        7.8682724000         0.0689991000
        1.8812885000         0.3164240000
        0.5442493000         0.7443083000
 s    1  1.00
        0.1687144000         1.0000000000
 p    1  1.00
        0.1687144000         1.0000000000
 d    1  1.00
        0.8000000000         1.0000000000
 s    1  1.00
        0.0438000000         1.0000000000
 p    1  1.00
        0.0438000000         1.0000000000

  2 0
 s    6  1.00
     5484.6717000000         0.0018311000
      825.2349500000         0.0139501000
      188.0469600000         0.0684451000
       52.9645000000         0.2327143000
       16.8975700000         0.4701930000
        5.7996353000         0.3585209000
 s    3  1.00
       15.5396160000        -0.1107775000
        3.5999336000        -0.1480263000
        1.0137618000         1.1307670000
 p    3  1.00
       15.5396160000         0.0708743000
        3.5999336000         0.3397528000
        1.0137618000         0.7271586000
 s    1  1.00
        0.2700058000         1.0000000000
 p    1  1.00
        0.2700058000         1.0000000000
 d    1  1.00
        0.8000000000         1.0000000000
 s    1  1.00
        0.0845000000         1.0000000000
 p    1  1.00
        0.0845000000         1.0000000000

  3 0
 s    6  1.00
     5484.6717000000         0.0018311000
      825.2349500000         0.0139501000
      188.0469600000         0.0684451000
       52.9645000000         0.2327143000
       16.8975700000         0.4701930000
        5.7996353000         0.3585209000
 s    3  1.00
       15.5396160000        -0.1107775000
        3.5999336000        -0.1480263000
        1.0137618000         1.1307670000
 p    3  1.00
       15.5396160000         0.0708743000
        3.5999336000         0.3397528000
        1.0137618000         0.7271586000
 s    1  1.00
        0.2700058000         1.0000000000
 p    1  1.00
        0.2700058000         1.0000000000
 d    1  1.00
        0.8000000000         1.0000000000
 s    1  1.00
        0.0845000000         1.0000000000
 p    1  1.00
        0.0845000000         1.0000000000

  4 0
 s    6  1.00
     4173.5110000000         0.0018348000
      627.4579000000         0.0139950000
      142.9021000000         0.0685870000
       40.2343300000         0.2322410000
       12.8202100000         0.4690700000
        4.3904370000         0.3604550000
 s    3  1.00
       11.6263580000        -0.1149610000
        2.7162800000        -0.1691180000
        0.7722180000         1.1458520000
 p    3  1.00
       11.6263580000         0.0675800000
        2.7162800000         0.3239070000
        0.7722180000         0.7408950000
 s    1  1.00
        0.2120313000         1.0000000000
 p    1  1.00
        0.2120313000         1.0000000000
 d    1  1.00
        0.8000000000         1.0000000000
 s    1  1.00
        0.0639000000         1.0000000000
 p    1  1.00
        0.0639000000         1.0000000000

  5 0
 s    3  1.00
       18.7311370000         0.0334946000
        2.8253937000         0.2347269500
        0.6401217000         0.8137573300
 s    1  1.00
        0.1612778000         1.0000000000

  6 0
 s    3  1.00
       18.7311370000         0.0334946000
        2.8253937000         0.2347269500
        0.6401217000         0.8137573300
 s    1  1.00
        0.1612778000         1.0000000000

  7 0
 s    6  1.00
     3047.5249000000         0.0018347000
      457.3695100000         0.0140373000
      103.9486900000         0.0688426000
       29.2101550000         0.2321844000
        9.2866630000         0.4679413000
        3.1639270000         0.3623120000
 s    3  1.00
        7.8682724000        -0.1193324000
        1.8812885000        -0.1608542000
        0.5442493000         1.1434564000
 p    3  1.00
        7.8682724000         0.0689991000
        1.8812885000         0.3164240000
        0.5442493000         0.7443083000
 s    1  1.00
        0.1687144000         1.0000000000
 p    1  1.00
        0.1687144000         1.0000000000
 d    1  1.00
        0.8000000000         1.0000000000
 s    1  1.00
        0.0438000000         1.0000000000
 p    1  1.00
        0.0438000000         1.0000000000

  8 0
 s    3  1.00
       18.7311370000         0.0334946000
        2.8253937000         0.2347269500
        0.6401217000         0.8137573300
 s    1  1.00
        0.1612778000         1.0000000000

  9 0
 s    6  1.00
     3047.5249000000         0.0018347000
      457.3695100000         0.0140373000
      103.9486900000         0.0688426000
       29.2101550000         0.2321844000
        9.2866630000         0.4679413000
        3.1639270000         0.3623120000
 s    3  1.00
        7.8682724000        -0.1193324000
        1.8812885000        -0.1608542000
        0.5442493000         1.1434564000
 p    3  1.00
        7.8682724000         0.0689991000
        1.8812885000         0.3164240000
        0.5442493000         0.7443083000
 s    1  1.00
        0.1687144000         1.0000000000
 p    1  1.00
        0.1687144000         1.0000000000
 d    1  1.00
        0.8000000000         1.0000000000
 s    1  1.00
        0.0438000000         1.0000000000
 p    1  1.00
        0.0438000000         1.0000000000

  10 0
 s    6  1.00
     5484.6717000000         0.0018311000
      825.2349500000         0.0139501000
      188.0469600000         0.0684451000
       52.9645000000         0.2327143000
       16.8975700000         0.4701930000
        5.7996353000         0.3585209000
 s    3  1.00
       15.5396160000        -0.1107775000
        3.5999336000        -0.1480263000
        1.0137618000         1.1307670000
 p    3  1.00
       15.5396160000         0.0708743000
        3.5999336000         0.3397528000
        1.0137618000         0.7271586000
 s    1  1.00
        0.2700058000         1.0000000000
 p    1  1.00
        0.2700058000         1.0000000000
 d    1  1.00
        0.8000000000         1.0000000000
 s    1  1.00
        0.0845000000         1.0000000000
 p    1  1.00
        0.0845000000         1.0000000000

  11 0
 s    6  1.00
     5484.6717000000         0.0018311000
      825.2349500000         0.0139501000
      188.0469600000         0.0684451000
       52.9645000000         0.2327143000
       16.8975700000         0.4701930000
        5.7996353000         0.3585209000
 s    3  1.00
       15.5396160000        -0.1107775000
        3.5999336000        -0.1480263000
        1.0137618000         1.1307670000
 p    3  1.00
       15.5396160000         0.0708743000
        3.5999336000         0.3397528000
        1.0137618000         0.7271586000
 s    1  1.00
        0.2700058000         1.0000000000
 p    1  1.00
        0.2700058000         1.0000000000
 d    1  1.00
        0.8000000000         1.0000000000
 s    1  1.00
        0.0845000000         1.0000000000
 p    1  1.00
        0.0845000000         1.0000000000

  12 0
 s    3  1.00
       18.7311370000         0.0334946000
        2.8253937000         0.2347269500
        0.6401217000         0.8137573300
 s    1  1.00
        0.1612778000         1.0000000000

  13 0
 s    6  1.00
     3047.5249000000         0.0018347000
      457.3695100000         0.0140373000
      103.9486900000         0.0688426000
       29.2101550000         0.2321844000
        9.2866630000         0.4679413000
        3.1639270000         0.3623120000
 s    3  1.00
        7.8682724000        -0.1193324000
        1.8812885000        -0.1608542000
        0.5442493000         1.1434564000
 p    3  1.00
        7.8682724000         0.0689991000
        1.8812885000         0.3164240000
        0.5442493000         0.7443083000
 s    1  1.00
        0.1687144000         1.0000000000
 p    1  1.00
        0.1687144000         1.0000000000
 d    1  1.00
        0.8000000000         1.0000000000
 s    1  1.00
        0.0438000000         1.0000000000
 p    1  1.00
        0.0438000000         1.0000000000

  14 0
 s    3  1.00
       18.7311370000         0.0334946000
        2.8253937000         0.2347269500
        0.6401217000         0.8137573300
 s    1  1.00
        0.1612778000         1.0000000000

  15 0
 s    3  1.00
       18.7311370000         0.0334946000
        2.8253937000         0.2347269500
        0.6401217000         0.8137573300
 s    1  1.00
        0.1612778000         1.0000000000

  16 0
 s    3  1.00
       18.7311370000         0.0334946000
        2.8253937000         0.2347269500
        0.6401217000         0.8137573300
 s    1  1.00
        0.1612778000         1.0000000000

[MO]
 Sym= A
 Ene=        -0.0002879039
 Spin= Alpha
 Occup= -0.0006
  1      -0.010748067157
  2      -0.074335708150
  3       0.018354144206
  4      -0.017531229713
  5       0.000430862250
  6      -0.071201226773
  7       0.525677693441
  8      -0.133359324582
  9      -0.481210791422
 10      -0.106248174061
 11       0.014756230073
 12       0.021859157302
 13       0.014051515952
 14       0.052360853952
 15       0.013361068862
 16       0.107652483359
 17       0.878169445674
 18      -0.329439300811
 19      -0.438950514482
 20      -0.016245805408
 21      -0.195069170472
 22       0.174046095275
 23      -0.024409747800
 24      -0.045437757282
 25       0.711718176628
 26      -0.548460395659
 27       0.068691959684
 28      -0.039433012499
 29      -0.027662403752
 30      -0.033627428756
 31      -0.052691538537
 32       0.006665397249
 33       0.173467597534
 34      -0.027579690364
 35       0.802299958858
 36       0.043581560286
 37      -0.106330786072
 38      -0.423430818024
 39      -0.015163334870
 40      -0.182160080145
 41       0.205174798912
 42      -0.041875249812
 43      -0.077183251100
 44       0.496556770743
 45      -0.696898172817
 46       0.129764017037
 47       0.332955392185
 48      -0.118043539055
 49      -0.035819909487
 50       0.028487867262
 51       0.016723626186
 52      -0.106571734150
 53       0.029354693456
 54      -0.019665548649
 55       0.301702848896
 56      -0.015024244640
 57      -0.109041832679
 58       0.016288113166
 59       0.156303840983
 60       0.130524473830
 61      -0.088342242241
 62      -0.130599784968
 63      -0.736632843312
 64      -0.458483055728
 65       0.326155237119
 66       0.409554937891
 67       0.024237573004
 68      -0.016027650973
 69       0.011522337677
 70      -0.030855337448
 71       0.020282397637
 72      -0.000639604665
 73      -1.085801789699
 74       1.436842941812
 75      -0.172173425262
 76      -1.257298593991
 77       0.042227825903
 78      -0.125426899731
 79       0.028460039443
 80       0.218214411748
 81       0.000903782644
 82      -0.001166083426
 83      -0.069681012332
 84       0.036666195681
 85       0.015914871075
 86      -0.073193289194
 87       0.152395219114
 88      -0.076999430094
 89      -0.243389078837
 90       0.016239912612
 91      -0.000427785172
 92      -0.003546144048
 93       0.016248809524
 94       0.050746069154
 95       0.049145536168
 96      -5.574217551114
 97      -2.493400918035
 98       0.107873441822
 99       1.457226065612
100       0.026247908566
101       0.137242180994
102       0.002427096565
103      -0.048692285294
104       0.040463052234
105      -0.014552958786
106      -0.000069629066
107      -0.157142922835
108      -0.660525203660
109      -0.464003346294
110      -0.102452992873
111      -0.018271216695
112       0.057714928431
113      -0.019390729590
114       0.027629984950
115      -0.035024928601
116       0.063939010121
117       2.887566960039
118      -0.818371764431
119       0.293414100597
120      -0.042550212087
121       0.002984675568
122       0.082782824035
123      -0.140605549412
124      -0.028222178414
125      -0.031129470882
126      -0.381834799433
127       0.572048417188
128      -0.058765871991
129       0.041390493457
130      -0.000005924285
131      -0.017289981734
132      -0.005291264671
133       0.094932621862
134      -0.007380019425
135       0.017293013384
136      -0.274084157184
137      -0.088421438840
138      -0.101887390275
139       0.040110055179
140      -0.015693389197
141      -0.189639378525
142      -0.064447373776
143      -0.004668167600
144      -0.009276516333
145       0.762205644727
146       0.052955247040
147      -0.114805493840
148      -0.005215796542
149      -0.043904897616
150      -0.033769939529
151      -0.017949767074
152      -0.015041453585
153      -0.016377742792
154      -0.000093865981
155       0.930379171720
156      -0.366080365158
157      -0.180394812456
158      -0.032482369063
159      -0.012770791392
160      -0.054561272471
161       0.001163310417
162       0.045049294436
163      -0.004474684187
164      -0.039039198936
165      -0.020909675740
166      -0.059693905932
167       0.027738834718
168       0.153853884047
169       0.099207501937
170       0.028569037683
171      -0.037380932756
172      -0.003649640079
173       0.013813275393
174       0.009659421213
175      -0.061403636413
176       2.107472400143
177       0.655047412341
178      -0.653001776380
179       0.003211393634
180      -0.002793560804
181       0.016520035471
182      -0.042778336105
183       0.067170735587
184       0.052155812236
185      -0.131238995035
 Sym= A
 Ene=        -0.0001556898
 Spin= Alpha
 Occup= -0.0003
  1      -0.007063027541
  2      -0.036480544305
  3       0.043783235210
  4       0.017010922919
  5      -0.004594328119
  6      -0.159191654798
  7       0.142244563735
  8      -0.060049223814
  9      -0.523192056535
 10      -0.069237329776
 11       0.017270071026
 12       0.017242546833
 13       0.052299716360
 14       0.019816836742
 15      -0.027102477423
 16       1.472304465384
 17       0.962999626277
 18       0.206211805804
 19      -0.229020161635
 20      -0.026741450675
 21      -0.227644759087
 22       0.065871892663
 23      -0.006838787401
 24      -0.030113353471
 25       0.885119461580
 26      -0.182525808296
 27       0.015531255249
 28      -0.089979165096
 29      -0.072972324938
 30      -0.069340144254
 31      -0.088740320452
 32       0.014471059565
 33       0.067090905360
 34      -0.007283810117
 35       0.519829738537
 36       0.103149746643
 37      -0.010031700181
 38      -0.265048846263
 39      -0.014272250252
 40      -0.125813946986
 41       0.100789095112
 42      -0.008958779549
 43      -0.045420854040
 44       0.252755702472
 45      -0.351884333550
 46       0.058474355108
 47       0.175133498405
 48      -0.073753145521
 49      -0.062295073966
 50      -0.007332431009
 51       0.009049445846
 52      -0.048764828340
 53      -0.001632723384
 54       0.116614554863
 55       0.302912357276
 56      -0.117392933016
 57      -0.083821233173
 58      -0.010356197895
 59      -0.099935606832
 60       0.016668304271
 61       0.019539835177
 62      -0.061507656912
 63       0.190356832766
 64       0.040139822782
 65      -0.200779189915
 66       0.233687373672
 67       0.005894279097
 68      -0.025283982054
 69      -0.032528408373
 70      -0.031810101197
 71      -0.012898918099
 72       0.001916718813
 73      -1.531549784428
 74       0.838860715867
 75      -0.173055742791
 76      -0.403944343378
 77       0.030566412501
 78       0.025976484806
 79       0.002505233874
 80      -0.101667638951
 81      -0.007824195652
 82       0.027720218653
 83       0.107649004352
 84      -0.080261355124
 85      -0.001423634261
 86       0.509639016025
 87      -0.156950025694
 88       0.045825168032
 89      -0.163089914740
 90      -0.075461570099
 91       0.008699981854
 92       0.026249932674
 93       0.029886964553
 94       0.023421582488
 95      -0.017814355115
 96       8.500174785216
 97       3.669269105375
 98      -2.145836526558
 99      -0.781812229359
100      -0.019565221858
101       0.089906070729
102       0.003857398199
103       0.132700361124
104      -0.040297597536
105       0.035063996143
106       0.009263288741
107      -0.240222026910
108       0.857101621688
109      -0.118017685584
110       0.051383894403
111       0.040586212111
112      -0.069458025601
113      -0.014193696682
114      -0.184109887860
115      -0.045509935985
116      -0.000564079296
117      -8.813294969331
118       3.090228597657
119      -1.013262005258
120      -0.321238844638
121       0.025029918743
122       0.186820947096
123       0.231356284706
124      -0.024109678822
125      -0.010103183693
126      -0.605902836526
127      -0.889167426493
128       0.073270543245
129       0.012187152342
130       0.069676129472
131       0.132444722057
132       0.065260443523
133      -0.176824723874
134      -0.065349549165
135       0.027205057519
136       0.249011763684
137       0.562431163643
138       0.145440432942
139       0.071616422330
140       0.028938909881
141       0.268410501107
142       0.122697496995
143      -0.016155816427
144       0.031674020485
145      -0.903888815156
146      -0.332557359289
147       0.155314207351
148      -0.076976709132
149       0.163175365346
150       0.037787939945
151       0.060363345416
152       0.060062261341
153       0.027735024176
154      -0.007891289022
155      -0.523810423028
156       0.269292535540
157       0.301400842570
158       0.128025258650
159       0.089796003004
160      -0.276419792735
161       0.003381567943
162      -0.023604322154
163       0.001687267499
164       0.064747239845
165      -0.012538441387
166      -0.064788526876
167       0.104253378827
168      -0.045504398244
169      -0.024545256520
170       0.004658449189
171       0.017164522605
172       0.017727527109
173       0.003400216148
174      -0.027558185269
175      -0.020995963935
176       0.397491749490
177      -0.521863447138
178       0.319597243306
179       0.237828336779
180      -0.008265134200
181       0.127470587264
182       0.062234927464
183      -0.307586343661
184       0.029384509781
185      -0.183177123703
 Sym= A
 Ene=        -0.0001127629
 Spin= Alpha
 Occup= -0.0002
  1      -0.007000661800
  2      -0.011882899883
  3      -0.048896939713
  4       0.010428495979
  5      -0.113139379875
  6       0.208365959363
  7       0.476082846681
  8      -0.029023198573
  9       0.744442844908
 10       0.021859715059
 11      -0.009674616374
 12      -0.064700250514
 13       0.009429273309
 14       0.223488821590
 15      -0.046706311669
 16      -0.074134070443
 17       0.154655178573
 18      -0.106430443326
 19       0.344779465622
 20       0.040995186033
 21       0.300047973872
 22       0.194131165908
 23      -0.025591799972
 24       0.107073545753
 25      -1.167705511689
 26      -0.721894997153
 27       0.106213364408
 28      -0.264978154522
 29       0.100734180818
 30       0.099089399380
 31       0.220422256818
 32       0.028844618637
 33       0.088318314476
 34       0.010202876994
 35      -0.498595702108
 36       0.712435545197
 37      -0.139390906765
 38       0.513737382219
 39      -0.034637675072
 40      -0.251258504875
 41      -0.053008682361
 42       0.046102634632
 43       0.173994055542
 44       0.962808848279
 45       0.254536989413
 46      -0.127189995124
 47      -0.525042559858
 48      -0.129453731824
 49      -0.067557471897
 50      -0.173334186608
 51      -0.017093947162
 52      -0.096354673955
 53      -0.004382914272
 54       1.836196803110
 55       0.139406990664
 56       0.035568734418
 57       1.083170952635
 58      -0.012358544064
 59      -0.023281405888
 60       0.035075629530
 61       0.012162282608
 62       0.038529681100
 63       0.369974459598
 64      -0.019475281850
 65      -0.019783641250
 66      -0.173769126560
 67      -0.013743915992
 68      -0.012487452494
 69      -0.078671655279
 70       0.021629079183
 71       0.101858015451
 72       0.033085108838
 73      -0.248883616210
 74       2.311274605337
 75      -0.279478560862
 76      -0.337546400481
 77      -0.009136190059
 78       0.085023627234
 79       0.020376463282
 80      -0.288915328231
 81       0.020797466461
 82       0.175755323881
 83      -0.024672704212
 84      -0.046283415345
 85       0.063279416693
 86      -0.443966269718
 87       0.129715716670
 88       0.476761711702
 89       0.104868669252
 90      -0.016397320563
 91       0.053229352717
 92       0.005877501555
 93       0.011477850558
 94       0.015238504368
 95      -0.048756601557
 96      -3.443017769135
 97      -1.929046935419
 98       0.127117297976
 99       1.431023704775
100       0.099788818282
101      -0.785064545492
102      -0.001587746099
103      -0.034982240692
104      -0.006047812880
105       0.004305439546
106      -0.007894194506
107       0.355458394863
108      -0.056781137081
109      -0.045751677852
110      -0.025442251993
111       0.053726455779
112       0.003576677192
113      -0.014362728735
114       0.022850237072
115      -0.055669372916
116       0.015836311350
117       3.158834816631
118      -0.417883367562
119       0.646615171516
120      -0.249354322182
121       0.007114059770
122       0.052511124308
123       0.005341620587
124      -0.005087756301
125      -0.027503987721
126      -0.145362949152
127      -0.022422120098
128      -0.030890036341
129       0.050427314803
130       0.029007919452
131       0.026137413199
132       0.027285269484
133       0.011662831180
134       0.006851555352
135       0.038163710781
136      -0.865951303504
137       0.459902764734
138      -0.275836647468
139       0.010137874140
140       0.001577448551
141       0.031017912853
142       0.015539927341
143       0.004529067167
144      -0.041444218116
145      -0.092294418824
146       0.007485268076
147       0.008600879548
148       0.137270132001
149      -0.007338386303
150       0.003303510204
151       0.001313336101
152      -0.011309044056
153      -0.008141486753
154      -0.023771711806
155      -0.035973464473
156      -0.060482454597
157       0.051976397481
158      -0.113646120902
159       0.002879523257
160       0.043469019146
161       0.006411648427
162       0.020964036688
163       0.023736962779
164       0.039187924227
165       0.019596231964
166      -0.262913084605
167      -0.185537517394
168      -0.056723862108
169      -0.215977849821
170       0.018711903764
171      -0.008792121157
172       0.019020558825
173       0.002474998923
174       0.001747082072
175      -0.018338256591
176       0.865065931305
177       0.209186857835
178      -0.140659354256
179      -0.168164650029
180      -0.026286496177
181       0.025551961790
182       0.049254043144
183       0.108204992047
184      -0.011801627328
185      -0.102610753417
 Sym= A
 Ene=        -0.0000809613
 Spin= Alpha
 Occup= -0.0002
  1      -0.000733570610
  2       0.008437053741
  3      -0.006847003870
  4      -0.005598081148
  5      -0.023940370081
  6      -0.034600695929
  7       0.053900658367
  8      -0.027514502762
  9       0.025801585567
 10       0.005294886243
 11      -0.002502156355
 12      -0.007691493702
 13      -0.010928641716
 14       0.020106293699
 15       0.001647369667
 16      -0.261853432363
 17      -0.009714411507
 18      -0.049661877528
 19       0.033738384043
 20      -0.000413940875
 21      -0.001273951177
 22       0.012159007156
 23      -0.002924227149
 24       0.012706791957
 25       0.008824110911
 26      -0.056680793540
 27       0.014376717454
 28      -0.075967318943
 29       0.005911326001
 30      -0.013247052973
 31       0.007858104512
 32      -0.003303161367
 33       0.011399473548
 34       0.000876387165
 35      -0.077218303191
 36       0.116473177620
 37      -0.048032257452
 38       0.169683209145
 39      -0.017340539692
 40      -0.094608586115
 41      -0.002998712593
 42      -0.004118573998
 43       0.036180393639
 44       0.355751807573
 45       0.024579908685
 46       0.001188921376
 47      -0.107015584916
 48      -0.062383868798
 49      -0.054092572845
 50      -0.065231561792
 51       0.008139262580
 52      -0.018166076288
 53       0.005070410911
 54       0.028985790482
 55      -0.036917143190
 56       0.065980443866
 57       0.207114096012
 58       0.006063149867
 59       0.003132765337
 60      -0.007566261485
 61      -0.012299476120
 62      -0.004009127509
 63      -0.139185182405
 64       0.025942371092
 65       0.073248881818
 66      -0.007607206585
 67       0.020326748111
 68       0.020819823250
 69       0.008275172121
 70       0.024065932703
 71       0.001838696053
 72      -0.009367307904
 73      -1.356672359781
 74      -0.259645512134
 75      -0.343732138916
 76       0.187356588429
 77       0.017565853862
 78       0.154275579026
 79      -0.004694600590
 80       0.201310734103
 81       0.003840854431
 82       0.062370220328
 83       0.018835557318
 84       0.043177176029
 85      -0.010801076775
 86      -0.132914564135
 87      -0.249424848728
 88      -0.102036133969
 89       0.221646458852
 90      -0.008531186293
 91      -0.001448320886
 92      -0.008681894763
 93      -0.000674027714
 94      -0.056367186978
 95       0.055690876218
 96       3.710125454982
 97      -1.479060494756
 98       2.530323228801
 99      -2.039178666857
100       0.052428975928
101      -0.469903276380
102      -0.003323045736
103      -0.053613325844
104      -0.011078757993
105      -0.045532907411
106       0.119919584470
107       0.310263092082
108      -0.144930537549
109       0.128536363855
110      -0.006014519395
111      -0.013858955745
112      -0.000615148134
113       0.040744594096
114      -0.042188556215
115       0.186304908697
116       0.158812956013
117       2.958605194333
118      -0.952511176638
119      -0.088336898062
120       1.568149032988
121      -0.011262132509
122      -0.053314989366
123      -0.014730846671
124      -0.006321143604
125       0.051709424391
126       0.215149227228
127       0.063767465682
128      -0.052041517338
129      -0.004543950051
130      -0.035436232218
131      -0.036696521487
132      -0.052615853959
133       0.040070391983
134      -0.075704507488
135      -0.100118001251
136      -0.138440625288
137       0.083460383575
138       0.201014522091
139      -0.673699293614
140      -0.001948266909
141      -0.008284820296
142      -0.006386410857
143      -0.045379018078
144       0.319580422250
145       0.056003977350
146       0.019355011004
147       0.138809453080
148      -1.032636877887
149      -0.012064482409
150      -0.002513771447
151       0.007551436753
152      -0.012383160018
153       0.037796758237
154       0.049367634471
155      -0.368335041645
156       0.249238513162
157      -0.132064811379
158       0.951866916027
159      -0.018807751495
160       0.032047933682
161      -0.012600398625
162      -0.055365472307
163      -0.024267530137
164      -0.028363583389
165       0.078618922037
166       0.141917814966
167       0.233918815320
168      -0.083173447923
169      -0.213465461145
170      -0.032925954404
171      -0.032747607442
172       0.000661454432
173      -0.009048423198
174      -0.025394418919
175       0.024537111495
176      -5.615615835119
177       0.327708469319
178       1.000425200298
179      -0.270924691077
180       0.012749993288
181       0.192742175527
182      -0.026022921876
183       0.056960293231
184      -0.160358211094
185       0.327346481084
 Sym= A
 Ene=        -0.0000533372
 Spin= Alpha
 Occup= -0.0001
  1       0.005804120229
  2       0.051841967084
  3       0.024156564692
  4      -0.001454422784
  5      -0.005719524754
  6      -0.507452007969
  7      -0.016492720518
  8       0.012000112893
  9       0.136960413402
 10      -0.012928700441
 11       0.013687466305
 12       0.008955291305
 13       0.047471992904
 14      -0.002083846161
 15       0.011380797376
 16       0.019594870915
 17       0.248518003224
 18      -0.146450917808
 19      -0.228167281639
 20      -0.001770124377
 21      -0.007476110709
 22       0.014627041867
 23       0.006256560466
 24      -0.003117661388
 25      -0.041843679442
 26      -0.048123105711
 27      -0.019550092930
 28      -0.021073316167
 29      -0.011540182810
 30      -0.015160858132
 31      -0.008942132416
 32      -0.010599391058
 33       0.004312870746
 34       0.001653879441
 35       0.628340908840
 36       0.080671677972
 37      -0.008383205321
 38      -0.162459886062
 39      -0.028722734395