
    -----------------------------------------------------------------------
          Psi4: An Open-Source Ab Initio Electronic Structure Package
                               Psi4 1.2.1 release

                         Git: Rev {HEAD} 406f4de 


    R. M. Parrish, L. A. Burns, D. G. A. Smith, A. C. Simmonett,
    A. E. DePrince III, E. G. Hohenstein, U. Bozkaya, A. Yu. Sokolov,
    R. Di Remigio, R. M. Richard, J. F. Gonthier, A. M. James,
    H. R. McAlexander, A. Kumar, M. Saitow, X. Wang, B. P. Pritchard,
    P. Verma, H. F. Schaefer III, K. Patkowski, R. A. King, E. F. Valeev,
    F. A. Evangelista, J. M. Turney, T. D. Crawford, and C. D. Sherrill,
    J. Chem. Theory Comput. 13(7) pp 3185--3197 (2017).
    (doi: 10.1021/acs.jctc.7b00174)


                         Additional Contributions by
    P. Kraus, H. Kruse, M. H. Lechner, M. C. Schieber, and R. A. Shaw

    -----------------------------------------------------------------------


    Psi4 started on: Friday, 15 February 2019 12:42PM

    Process ID: 44654
    Host:       localhost.localdomain
    PSIDATADIR: /root/psi4conda/share/psi4
    Memory:     500.0 MiB
    Threads:    1
    
  ==> Input File <==

--------------------------------------------------------------------------

molecule{ 
0 1
 C   -2.085177798366   -0.186361177001    0.339535588480
 O   -2.162714282686   -0.074922305570    1.546473264902
 O   -2.756985096527   -0.143008245371   -0.684487380548
 N   -0.595962671195   -0.459929883615   -0.305357949620
 H   -0.875836477156   -0.324566892022   -1.279670242435
 H   -0.315723604169   -1.440850311016   -0.196547205376
 C    0.486394086376    0.434129654617    0.118580248687
 H    0.358516515905    0.571935062952    1.201860297122
 C    1.797722616567   -0.307840303966   -0.091816742175
 O    1.874182153940   -1.488143774431   -0.367665045604
 O    2.862916648733    0.485403278782    0.098768495628
 H    3.665504619501   -0.057129473285   -0.006502863827
 C    0.405036580729    1.791878468416   -0.586017792354
 H   -0.563368530251    2.259979898661   -0.386089395980
 H    1.193571257497    2.450809747770   -0.216547668223
 H    0.524421346103    1.682859196933   -1.670357854848
}

set basis 6-31+G*
set_num_threads(16)
e, wfn = properties('mp2', return_wfn=True)

d = wfn.Da().to_array()
s = wfn.S().to_array()
c = wfn.Ca().to_array()
occs = c.T.dot(s.dot(d).dot(s).dot(c))

molden(wfn, 'mp2.molden', density_a = psi4.core.Matrix.from_array(occs))
--------------------------------------------------------------------------
  Threads set to 16 by Python driver.
    SCF Algorithm Type (re)set to DF.

*** tstart() called on localhost.localdomain
*** at Fri Feb 15 12:42:44 2019

   => Loading Basis Set <=

    Name: 6-31+G*
    Role: ORBITAL
    Keyword: BASIS
    atoms 1, 7, 9, 13       entry C          line   119 file /root/psi4conda/share/psi4/basis/6-31pgs.gbs 
    atoms 2-3, 10-11        entry O          line   157 file /root/psi4conda/share/psi4/basis/6-31pgs.gbs 
    atoms 4                 entry N          line   138 file /root/psi4conda/share/psi4/basis/6-31pgs.gbs 
    atoms 5-6, 8, 12, 14-16 entry H          line    46 file /root/psi4conda/share/psi4/basis/6-31pgs.gbs 


         ---------------------------------------------------------
                                   SCF
            by Justin Turney, Rob Parrish, Andy Simmonett
                             and Daniel Smith
                              RHF Reference
                       16 Threads,    500 MiB Core
         ---------------------------------------------------------

  ==> Geometry <==

    Molecular point group: c1
    Full point group: C1

    Geometry (in Angstrom), charge = 0, multiplicity = 1:

       Center              X                  Y                   Z               Mass       
    ------------   -----------------  -----------------  -----------------  -----------------
         C           -2.085177798366    -0.186361177001     0.339535588480    12.000000000000
         O           -2.162714282686    -0.074922305570     1.546473264902    15.994914619560
         O           -2.756985096527    -0.143008245371    -0.684487380548    15.994914619560
         N           -0.595962671195    -0.459929883615    -0.305357949620    14.003074004780
         H           -0.875836477156    -0.324566892022    -1.279670242435     1.007825032070
         H           -0.315723604169    -1.440850311016    -0.196547205376     1.007825032070
         C            0.486394086376     0.434129654617     0.118580248687    12.000000000000
         H            0.358516515905     0.571935062952     1.201860297122     1.007825032070
         C            1.797722616567    -0.307840303966    -0.091816742175    12.000000000000
         O            1.874182153940    -1.488143774431    -0.367665045604    15.994914619560
         O            2.862916648733     0.485403278782     0.098768495628    15.994914619560
         H            3.665504619501    -0.057129473285    -0.006502863827     1.007825032070
         C            0.405036580729     1.791878468416    -0.586017792354    12.000000000000
         H           -0.563368530251     2.259979898661    -0.386089395980     1.007825032070
         H            1.193571257497     2.450809747770    -0.216547668223     1.007825032070
         H            0.524421346103     1.682859196933    -1.670357854848     1.007825032070

  Running in c1 symmetry.

  Rotational constants: A =      0.10582  B =      0.03000  C =      0.02780 [cm^-1]
  Rotational constants: A =   3172.40622  B =    899.26939  C =    833.56618 [MHz]
  Nuclear repulsion =  465.435906518750301

  Charge       = 0
  Multiplicity = 1
  Electrons    = 70
  Nalpha       = 35
  Nbeta        = 35

  ==> Algorithm <==

  SCF Algorithm Type is DF.
  DIIS enabled.
  MOM disabled.
  Fractional occupation disabled.
  Guess Type is SAD.
  Energy threshold   = 1.00e-10
  Density threshold  = 1.00e-10
  Integral threshold = 0.00e+00

  ==> Primary Basis <==

  Basis Set: 6-31+G*
    Blend: 6-31+G*
    Number of shells: 86
    Number of basis function: 185
    Number of Cartesian functions: 185
    Spherical Harmonics?: false
    Max angular momentum: 2

   => Loading Basis Set <=

    Name: (6-31+G* AUX)
    Role: JKFIT
    Keyword: DF_BASIS_SCF
    atoms 1, 7, 9, 13       entry C          line   194 file /root/psi4conda/share/psi4/basis/heavy-aug-cc-pvdz-jkfit.gbs 
    atoms 2-3, 10-11        entry O          line   310 file /root/psi4conda/share/psi4/basis/heavy-aug-cc-pvdz-jkfit.gbs 
    atoms 4                 entry N          line   252 file /root/psi4conda/share/psi4/basis/heavy-aug-cc-pvdz-jkfit.gbs 
    atoms 5-6, 8, 12, 14-16 entry H          line   116 file /root/psi4conda/share/psi4/basis/heavy-aug-cc-pvdz-jkfit.gbs 

  ==> Pre-Iterations <==

   -------------------------------------------------------
    Irrep   Nso     Nmo     Nalpha   Nbeta   Ndocc  Nsocc
   -------------------------------------------------------
     A        185     185       0       0       0       0
   -------------------------------------------------------
    Total     185     185      35      35      35       0
   -------------------------------------------------------

  ==> Integral Setup <==

  ==> DiskDFJK: Density-Fitted J/K Matrices <==

    J tasked:                  Yes
    K tasked:                  Yes
    wK tasked:                  No
    OpenMP threads:             16
    Integrals threads:          16
    Memory (MB):               375
    Algorithm:                Core
    Integral Cache:           NONE
    Schwarz Cutoff:          1E-12
    Fitting Condition:       1E-12

   => Auxiliary Basis Set <=

  Basis Set: (6-31+G* AUX)
    Blend: HEAVY-AUG-CC-PVDZ-JKFIT
    Number of shells: 315
    Number of basis function: 1084
    Number of Cartesian functions: 1084
    Spherical Harmonics?: false
    Max angular momentum: 3

  Minimum eigenvalue in the overlap matrix is 3.9160109371E-05.
  Using Symmetric Orthogonalization.

  SCF Guess: Superposition of Atomic Densities via on-the-fly atomic UHF.

  ==> Iterations <==

                           Total Energy        Delta E     RMS |[F,P]|

   @DF-RHF iter   0:  -512.63643203183233   -5.12636e+02   8.68733e-02 
   @DF-RHF iter   1:  -509.06280080311319    3.57363e+00   1.98709e-02 
   @DF-RHF iter   2:  -509.30978721232827   -2.46986e-01   1.41675e-02 DIIS
   @DF-RHF iter   3:  -509.46252481895027   -1.52738e-01   2.06223e-03 DIIS
   @DF-RHF iter   4:  -509.46910576138492   -6.58094e-03   7.18317e-04 DIIS
   @DF-RHF iter   5:  -509.46982064451134   -7.14883e-04   2.72597e-04 DIIS
   @DF-RHF iter   6:  -509.46996792873909   -1.47284e-04   1.06737e-04 DIIS
   @DF-RHF iter   7:  -509.46999450569740   -2.65770e-05   3.74505e-05 DIIS
   @DF-RHF iter   8:  -509.46999885361754   -4.34792e-06   1.43798e-05 DIIS
   @DF-RHF iter   9:  -509.46999941793064   -5.64313e-07   5.73003e-06 DIIS
   @DF-RHF iter  10:  -509.46999948789204   -6.99614e-08   1.17056e-06 DIIS
   @DF-RHF iter  11:  -509.46999949580601   -7.91397e-09   6.88995e-07 DIIS
   @DF-RHF iter  12:  -509.46999949666196   -8.55948e-10   2.54549e-07 DIIS
   @DF-RHF iter  13:  -509.46999949681799   -1.56035e-10   8.35074e-08 DIIS
   @DF-RHF iter  14:  -509.46999949683749   -1.94973e-11   2.66641e-08 DIIS
   @DF-RHF iter  15:  -509.46999949683902   -1.53477e-12   9.92286e-09 DIIS
   @DF-RHF iter  16:  -509.46999949684039   -1.36424e-12   3.78654e-09 DIIS
   @DF-RHF iter  17:  -509.46999949684022    1.70530e-13   1.51574e-09 DIIS
   @DF-RHF iter  18:  -509.46999949684039   -1.70530e-13   5.83946e-10 DIIS
   @DF-RHF iter  19:  -509.46999949683993    4.54747e-13   2.33984e-10 DIIS
   @DF-RHF iter  20:  -509.46999949683999   -5.68434e-14   9.23028e-11 DIIS

  ==> Post-Iterations <==

    Orbital Energies [Eh]
    ---------------------

    Doubly Occupied:                                                      

       1A    -20.675616     2A    -20.618354     3A    -20.554179  
       4A    -20.541146     5A    -15.680503     6A    -11.448030  
       7A    -11.414218     8A    -11.344940     9A    -11.276006  
      10A     -1.519737    11A     -1.435650    12A     -1.416772  
      13A     -1.344380    14A     -1.298401    15A     -1.089023  
      16A     -0.962973    17A     -0.869240    18A     -0.803904  
      19A     -0.776271    20A     -0.753600    21A     -0.730860  
      22A     -0.704225    23A     -0.673106    24A     -0.668777  
      25A     -0.635432    26A     -0.632528    27A     -0.603978  
      28A     -0.595447    29A     -0.576259    30A     -0.564725  
      31A     -0.530140    32A     -0.503932    33A     -0.455391  
      34A     -0.447061    35A     -0.429602  

    Virtual:                                                              

      36A      0.048083    37A      0.070045    38A      0.075420  
      39A      0.081312    40A      0.103865    41A      0.111317  
      42A      0.116454    43A      0.118471    44A      0.123347  
      45A      0.132067    46A      0.151556    47A      0.153791  
      48A      0.173979    49A      0.177311    50A      0.182733  
      51A      0.194213    52A      0.211395    53A      0.223007  
      54A      0.235880    55A      0.250179    56A      0.264727  
      57A      0.272524    58A      0.280383    59A      0.291862  
      60A      0.304835    61A      0.316563    62A      0.324407  
      63A      0.331556    64A      0.343688    65A      0.346447  
      66A      0.357812    67A      0.363426    68A      0.365308  
      69A      0.382292    70A      0.388888    71A      0.398622  
      72A      0.403600    73A      0.411539    74A      0.417485  
      75A      0.427393    76A      0.440737    77A      0.444583  
      78A      0.468229    79A      0.476045    80A      0.482375  
      81A      0.489035    82A      0.504643    83A      0.536323  
      84A      0.557147    85A      0.569779    86A      0.652070  
      87A      0.679439    88A      0.789592    89A      0.829178  
      90A      0.848312    91A      0.877262    92A      0.916478  
      93A      0.922891    94A      0.973391    95A      0.982489  
      96A      1.001990    97A      1.030191    98A      1.057653  
      99A      1.063719   100A      1.083102   101A      1.136862  
     102A      1.180402   103A      1.208361   104A      1.224554  
     105A      1.242408   106A      1.258311   107A      1.274025  
     108A      1.292895   109A      1.309278   110A      1.362302  
     111A      1.375646   112A      1.384029   113A      1.412813  
     114A      1.420819   115A      1.465708   116A      1.501227  
     117A      1.512834   118A      1.531956   119A      1.548835  
     120A      1.566803   121A      1.574121   122A      1.601294  
     123A      1.608236   124A      1.622658   125A      1.636481  
     126A      1.649691   127A      1.663118   128A      1.713976  
     129A      1.732459   130A      1.769666   131A      1.817643  
     132A      1.858732   133A      1.895812   134A      1.936654  
     135A      1.952684   136A      1.990481   137A      2.000703  
     138A      2.031180   139A      2.061408   140A      2.066749  
     141A      2.086490   142A      2.098292   143A      2.121141  
     144A      2.153057   145A      2.184181   146A      2.201302  
     147A      2.233959   148A      2.249313   149A      2.283039  
     150A      2.308249   151A      2.342097   152A      2.370816  
     153A      2.417200   154A      2.441655   155A      2.506864  
     156A      2.551184   157A      2.601494   158A      2.605014  
     159A      2.684341   160A      2.721866   161A      2.744133  
     162A      2.806303   163A      2.868019   164A      2.902075  
     165A      2.941041   166A      2.974910   167A      2.988066  
     168A      3.177797   169A      3.206061   170A      3.256936  
     171A      3.293783   172A      3.336377   173A      3.446704  
     174A      3.476563   175A      3.511787   176A      3.637108  
     177A      4.382919   178A      4.537485   179A      4.624953  
     180A      4.669915   181A      4.762873   182A      4.846811  
     183A      4.931214   184A      4.992060   185A      5.057528  

    Final Occupation by Irrep:
              A 
    DOCC [    35 ]

  Energy converged.

  @DF-RHF Final Energy:  -509.46999949683999

   => Energetics <=

    Nuclear Repulsion Energy =            465.4359065187503006
    One-Electron Energy =               -1620.6629984560872799
    Two-Electron Energy =                 645.7570924404969901
    Total Energy =                       -509.4699994968400460


*** tstop() called on localhost.localdomain at Fri Feb 15 12:42:48 2019
Module time:
	user time   =      50.66 seconds =       0.84 minutes
	system time =       3.28 seconds =       0.05 minutes
	total time  =          4 seconds =       0.07 minutes
Total time:
	user time   =      50.66 seconds =       0.84 minutes
	system time =       3.28 seconds =       0.05 minutes
	total time  =          4 seconds =       0.07 minutes
   => Loading Basis Set <=

    Name: (6-31+G* AUX)
    Role: RIFIT
    Keyword: DF_BASIS_MP2
    atoms 1, 7, 9, 13       entry C          line   116 file /root/psi4conda/share/psi4/basis/heavy-aug-cc-pvdz-ri.gbs 
    atoms 2-3, 10-11        entry O          line   208 file /root/psi4conda/share/psi4/basis/heavy-aug-cc-pvdz-ri.gbs 
    atoms 4                 entry N          line   162 file /root/psi4conda/share/psi4/basis/heavy-aug-cc-pvdz-ri.gbs 
    atoms 5-6, 8, 12, 14-16 entry H          line    44 file /root/psi4conda/share/psi4/basis/heavy-aug-cc-pvdz-ri.gbs 


  //>>>>>>>>>>>>>>>>>>>>>>>>>>>>>>>>>>>//
  //               DFMP2               //
  //<<<<<<<<<<<<<<<<<<<<<<<<<<<<<<<<<<<//

	 --------------------------------------------------------
	                          DF-MP2                         
	      2nd-Order Density-Fitted Moller-Plesset Theory     
	              RMP2 Wavefunction,  16 Threads             
	                                                         
	        Rob Parrish, Justin Turney, Andy Simmonett,      
	           Ed Hohenstein, and C. David Sherrill          
	 --------------------------------------------------------

   => Auxiliary Basis Set <=

  Basis Set: (6-31+G* AUX)
    Blend: HEAVY-AUG-CC-PVDZ-RI
    Number of shells: 240
    Number of basis function: 746
    Number of Cartesian functions: 879
    Spherical Harmonics?: true
    Max angular momentum: 3

	 --------------------------------------------------------
	                 NBF =   185, NAUX =   746
	 --------------------------------------------------------
	   CLASS    FOCC     OCC    AOCC    AVIR     VIR    FVIR
	   PAIRS       0      35      35     150     150       0
	 --------------------------------------------------------


         ------------------------------------------------------------
                                     CPHF                           
                                  Rob Parrish                       
         ------------------------------------------------------------

  ==> Geometry <==

    Molecular point group: c1
    Full point group: C1

    Geometry (in Angstrom), charge = 0, multiplicity = 1:

       Center              X                  Y                   Z               Mass       
    ------------   -----------------  -----------------  -----------------  -----------------
         C           -2.085177798366    -0.186361177001     0.339535588480    12.000000000000
         O           -2.162714282686    -0.074922305570     1.546473264902    15.994914619560
         O           -2.756985096527    -0.143008245371    -0.684487380548    15.994914619560
         N           -0.595962671195    -0.459929883615    -0.305357949620    14.003074004780
         H           -0.875836477156    -0.324566892022    -1.279670242435     1.007825032070
         H           -0.315723604169    -1.440850311016    -0.196547205376     1.007825032070
         C            0.486394086376     0.434129654617     0.118580248687    12.000000000000
         H            0.358516515905     0.571935062952     1.201860297122     1.007825032070
         C            1.797722616567    -0.307840303966    -0.091816742175    12.000000000000
         O            1.874182153940    -1.488143774431    -0.367665045604    15.994914619560
         O            2.862916648733     0.485403278782     0.098768495628    15.994914619560
         H            3.665504619501    -0.057129473285    -0.006502863827     1.007825032070
         C            0.405036580729     1.791878468416    -0.586017792354    12.000000000000
         H           -0.563368530251     2.259979898661    -0.386089395980     1.007825032070
         H            1.193571257497     2.450809747770    -0.216547668223     1.007825032070
         H            0.524421346103     1.682859196933    -1.670357854848     1.007825032070

  Nuclear repulsion =  465.435906518750301
  Reference energy  = -509.469999496839989

  ==> Basis Set <==

  Basis Set: 6-31+G*
    Blend: 6-31+G*
    Number of shells: 86
    Number of basis function: 185
    Number of Cartesian functions: 185
    Spherical Harmonics?: false
    Max angular momentum: 2

  ==> CGRSolver (by Rob Parrish) <==

   Number of roots    =         1
   Preconditioning    =    JACOBI
   Convergence cutoff =     1E-06
   Maximum iterations =       100

  ==> CPHFRHamiltonian (by Rob Parrish) <== 

  ==> DiskDFJK: Density-Fitted J/K Matrices <==

    J tasked:                  Yes
    K tasked:                  Yes
    wK tasked:                  No
    OpenMP threads:             16
    Integrals threads:          16
    Memory (MB):               375
    Algorithm:                Core
    Integral Cache:           NONE
    Schwarz Cutoff:          1E-12
    Fitting Condition:       1E-12

   => Auxiliary Basis Set <=

  Basis Set: (6-31+G* AUX)
    Blend: HEAVY-AUG-CC-PVDZ-JKFIT
    Number of shells: 315
    Number of basis function: 1084
    Number of Cartesian functions: 1084
    Spherical Harmonics?: false
    Max angular momentum: 3

  ==> CPHF Iterations <==

  => Iterations <=

             Iter  Converged  Remaining    Residual
  CGR           1          0          1   1.410E-01
  CGR           2          0          1   3.510E-02
  CGR           3          0          1   1.456E-02
  CGR           4          0          1   3.956E-03
  CGR           5          0          1   1.227E-03
  CGR           6          0          1   4.383E-04
  CGR           7          0          1   1.454E-04
  CGR           8          0          1   4.331E-05
  CGR           9          0          1   1.754E-05
  CGR          10          0          1   6.955E-06
  CGR          11          0          1   2.651E-06
  CGR          12          1          0   9.694E-07

    CGRSolver converged.

	-----------------------------------------------------------
	 ==================> DF-MP2 Energies <==================== 
	-----------------------------------------------------------
	 Reference Energy          =    -509.4699994968399892 [Eh]
	 Singles Energy            =      -0.0000000000000000 [Eh]
	 Same-Spin Energy          =      -0.3941869995525447 [Eh]
	 Opposite-Spin Energy      =      -1.0585768352183138 [Eh]
	 Correlation Energy        =      -1.4527638347708585 [Eh]
	 Total Energy              =    -510.9227633316108381 [Eh]
	-----------------------------------------------------------
	 ================> DF-SCS-MP2 Energies <================== 
	-----------------------------------------------------------
	 SCS Same-Spin Scale       =       0.3333333333333333 [-]
	 SCS Opposite-Spin Scale   =       1.2000000000000000 [-]
	 SCS Same-Spin Energy      =      -0.1313956665175149 [Eh]
	 SCS Opposite-Spin Energy  =      -1.2702922022619765 [Eh]
	 SCS Correlation Energy    =      -1.4016878687794914 [Eh]
	 SCS Total Energy          =    -510.8716873656194934 [Eh]
	-----------------------------------------------------------



Properties will be evaluated at   0.000000,   0.000000,   0.000000 [a0]

Properties computed using the MP2 density matrix

  Nuclear Dipole Moment: [e a0]
     X:     3.7386      Y:     4.8169      Z:    -2.3904

  Electronic Dipole Moment: [e a0]
     X:    -0.9655      Y:    -4.4338      Z:     1.6740

  Dipole Moment: [e a0]
     X:     2.7731      Y:     0.3831      Z:    -0.7165     Total:     2.8897

  Dipole Moment: [D]
     X:     7.0486      Y:     0.9737      Z:    -1.8211     Total:     7.3449

  Quadrupole Moment: [D A]
    XX:   -64.4165     YY:   -53.1470     ZZ:   -57.3929
    XY:     1.5564     XZ:     2.8305     YZ:    -1.0821

  Traceless Quadrupole Moment: [D A]
    XX:    -6.0977     YY:     5.1719     ZZ:     0.9259
    XY:     1.5564     XZ:     2.8305     YZ:    -1.0821


    Psi4 stopped on: Friday, 15 February 2019 12:42PM
    Psi4 wall time for execution: 0:00:10.86

*** Psi4 exiting successfully. Buy a developer a beer!
