[Molden Format]
[Title]
CLPOs

[Atoms] AU
C    1   6         -5.0516991558        -0.1555588876         0.8666608676 
O    2   8         -4.2723413380        -0.0462409491         2.9399896170 
O    3   8         -6.0975687611        -0.2017458123        -1.0841103236 
N    4   7         -0.7807836937        -1.0388630066        -1.0160249431 
H    5   1         -0.7991877996        -0.8977083958        -2.9379316545 
H    6   1         -0.3544318689        -2.8762586866        -0.6210338908 
C    7   6          1.1528197757         0.6116732844         0.0507830742 
H    8   1          0.7992859351         0.7473982724         2.0966929442 
C    9   6          3.7717056762        -0.5873149261        -0.1860119626 
O   10   8          4.1266470633        -2.7996378636        -0.6801537527 
O   11   8          5.6820932426         1.0380091747         0.3053469390 
H   12   1          7.2572216439         0.0799157300         0.2111014635 
C   13   6          0.9751807952         3.2762942554        -1.0728388760 
H   14   1         -0.9211475839         4.0355272513        -0.7501985897 
H   15   1          2.3537464219         4.5447280545        -0.2051979757 
H   16   1          1.3220920675         3.2466876175        -3.1170474650 
[GTO]
  1 0 
s   6 1.0  
     3047.5249000000         0.0018347000 
      457.3695100000         0.0140373000 
      103.9486900000         0.0688426000 
       29.2101550000         0.2321844000 
        9.2866630000         0.4679413000 
        3.1639270000         0.3623120000 
s   3 1.0  
        7.8682724000        -0.1193324000 
        1.8812885000        -0.1608542000 
        0.5442493000         1.1434564000 
p   3 1.0  
        7.8682724000         0.0689991000 
        1.8812885000         0.3164240000 
        0.5442493000         0.7443083000 
s   1 1.0  
        0.1687144000         1.0000000000 
p   1 1.0  
        0.1687144000         1.0000000000 
d   1 1.0  
        0.8000000000         1.0000000000 
s2   1 1.0  
        0.8000000000         1.0000000000 
s   1 1.0  
        0.0438000000         1.0000000000 
p   1 1.0  
        0.0438000000         1.0000000000 

  2 0 
s   6 1.0  
     5484.6717000000         0.0018311000 
      825.2349500000         0.0139501000 
      188.0469600000         0.0684451000 
       52.9645000000         0.2327143000 
       16.8975700000         0.4701930000 
        5.7996353000         0.3585209000 
s   3 1.0  
       15.5396160000        -0.1107775000 
        3.5999336000        -0.1480263000 
        1.0137618000         1.1307670000 
p   3 1.0  
       15.5396160000         0.0708743000 
        3.5999336000         0.3397528000 
        1.0137618000         0.7271586000 
s   1 1.0  
        0.2700058000         1.0000000000 
p   1 1.0  
        0.2700058000         1.0000000000 
d   1 1.0  
        0.8000000000         1.0000000000 
s2   1 1.0  
        0.8000000000         1.0000000000 
s   1 1.0  
        0.0845000000         1.0000000000 
p   1 1.0  
        0.0845000000         1.0000000000 

  3 0 
s   6 1.0  
     5484.6717000000         0.0018311000 
      825.2349500000         0.0139501000 
      188.0469600000         0.0684451000 
       52.9645000000         0.2327143000 
       16.8975700000         0.4701930000 
        5.7996353000         0.3585209000 
s   3 1.0  
       15.5396160000        -0.1107775000 
        3.5999336000        -0.1480263000 
        1.0137618000         1.1307670000 
p   3 1.0  
       15.5396160000         0.0708743000 
        3.5999336000         0.3397528000 
        1.0137618000         0.7271586000 
s   1 1.0  
        0.2700058000         1.0000000000 
p   1 1.0  
        0.2700058000         1.0000000000 
d   1 1.0  
        0.8000000000         1.0000000000 
s2   1 1.0  
        0.8000000000         1.0000000000 
s   1 1.0  
        0.0845000000         1.0000000000 
p   1 1.0  
        0.0845000000         1.0000000000 

  4 0 
s   6 1.0  
     4173.5110000000         0.0018348000 
      627.4579000000         0.0139950000 
      142.9021000000         0.0685870000 
       40.2343300000         0.2322410000 
       12.8202100000         0.4690700000 
        4.3904370000         0.3604550000 
s   3 1.0  
       11.6263580000        -0.1149610000 
        2.7162800000        -0.1691180000 
        0.7722180000         1.1458520000 
p   3 1.0  
       11.6263580000         0.0675800000 
        2.7162800000         0.3239070000 
        0.7722180000         0.7408950000 
s   1 1.0  
        0.2120313000         1.0000000000 
p   1 1.0  
        0.2120313000         1.0000000000 
d   1 1.0  
        0.8000000000         1.0000000000 
s2   1 1.0  
        0.8000000000         1.0000000000 
s   1 1.0  
        0.0639000000         1.0000000000 
p   1 1.0  
        0.0639000000         1.0000000000 

  5 0 
s   3 1.0  
       18.7311370000         0.0334946000 
        2.8253937000         0.2347269500 
        0.6401217000         0.8137573300 
s   1 1.0  
        0.1612778000         1.0000000000 

  6 0 
s   3 1.0  
       18.7311370000         0.0334946000 
        2.8253937000         0.2347269500 
        0.6401217000         0.8137573300 
s   1 1.0  
        0.1612778000         1.0000000000 

  7 0 
s   6 1.0  
     3047.5249000000         0.0018347000 
      457.3695100000         0.0140373000 
      103.9486900000         0.0688426000 
       29.2101550000         0.2321844000 
        9.2866630000         0.4679413000 
        3.1639270000         0.3623120000 
s   3 1.0  
        7.8682724000        -0.1193324000 
        1.8812885000        -0.1608542000 
        0.5442493000         1.1434564000 
p   3 1.0  
        7.8682724000         0.0689991000 
        1.8812885000         0.3164240000 
        0.5442493000         0.7443083000 
s   1 1.0  
        0.1687144000         1.0000000000 
p   1 1.0  
        0.1687144000         1.0000000000 
d   1 1.0  
        0.8000000000         1.0000000000 
s2   1 1.0  
        0.8000000000         1.0000000000 
s   1 1.0  
        0.0438000000         1.0000000000 
p   1 1.0  
        0.0438000000         1.0000000000 

  8 0 
s   3 1.0  
       18.7311370000         0.0334946000 
        2.8253937000         0.2347269500 
        0.6401217000         0.8137573300 
s   1 1.0  
        0.1612778000         1.0000000000 

  9 0 
s   6 1.0  
     3047.5249000000         0.0018347000 
      457.3695100000         0.0140373000 
      103.9486900000         0.0688426000 
       29.2101550000         0.2321844000 
        9.2866630000         0.4679413000 
        3.1639270000         0.3623120000 
s   3 1.0  
        7.8682724000        -0.1193324000 
        1.8812885000        -0.1608542000 
        0.5442493000         1.1434564000 
p   3 1.0  
        7.8682724000         0.0689991000 
        1.8812885000         0.3164240000 
        0.5442493000         0.7443083000 
s   1 1.0  
        0.1687144000         1.0000000000 
p   1 1.0  
        0.1687144000         1.0000000000 
d   1 1.0  
        0.8000000000         1.0000000000 
s2   1 1.0  
        0.8000000000         1.0000000000 
s   1 1.0  
        0.0438000000         1.0000000000 
p   1 1.0  
        0.0438000000         1.0000000000 

 10 0 
s   6 1.0  
     5484.6717000000         0.0018311000 
      825.2349500000         0.0139501000 
      188.0469600000         0.0684451000 
       52.9645000000         0.2327143000 
       16.8975700000         0.4701930000 
        5.7996353000         0.3585209000 
s   3 1.0  
       15.5396160000        -0.1107775000 
        3.5999336000        -0.1480263000 
        1.0137618000         1.1307670000 
p   3 1.0  
       15.5396160000         0.0708743000 
        3.5999336000         0.3397528000 
        1.0137618000         0.7271586000 
s   1 1.0  
        0.2700058000         1.0000000000 
p   1 1.0  
        0.2700058000         1.0000000000 
d   1 1.0  
        0.8000000000         1.0000000000 
s2   1 1.0  
        0.8000000000         1.0000000000 
s   1 1.0  
        0.0845000000         1.0000000000 
p   1 1.0  
        0.0845000000         1.0000000000 

 11 0 
s   6 1.0  
     5484.6717000000         0.0018311000 
      825.2349500000         0.0139501000 
      188.0469600000         0.0684451000 
       52.9645000000         0.2327143000 
       16.8975700000         0.4701930000 
        5.7996353000         0.3585209000 
s   3 1.0  
       15.5396160000        -0.1107775000 
        3.5999336000        -0.1480263000 
        1.0137618000         1.1307670000 
p   3 1.0  
       15.5396160000         0.0708743000 
        3.5999336000         0.3397528000 
        1.0137618000         0.7271586000 
s   1 1.0  
        0.2700058000         1.0000000000 
p   1 1.0  
        0.2700058000         1.0000000000 
d   1 1.0  
        0.8000000000         1.0000000000 
s2   1 1.0  
        0.8000000000         1.0000000000 
s   1 1.0  
        0.0845000000         1.0000000000 
p   1 1.0  
        0.0845000000         1.0000000000 

 12 0 
s   3 1.0  
       18.7311370000         0.0334946000 
        2.8253937000         0.2347269500 
        0.6401217000         0.8137573300 
s   1 1.0  
        0.1612778000         1.0000000000 

 13 0 
s   6 1.0  
     3047.5249000000         0.0018347000 
      457.3695100000         0.0140373000 
      103.9486900000         0.0688426000 
       29.2101550000         0.2321844000 
        9.2866630000         0.4679413000 
        3.1639270000         0.3623120000 
s   3 1.0  
        7.8682724000        -0.1193324000 
        1.8812885000        -0.1608542000 
        0.5442493000         1.1434564000 
p   3 1.0  
        7.8682724000         0.0689991000 
        1.8812885000         0.3164240000 
        0.5442493000         0.7443083000 
s   1 1.0  
        0.1687144000         1.0000000000 
p   1 1.0  
        0.1687144000         1.0000000000 
d   1 1.0  
        0.8000000000         1.0000000000 
s2   1 1.0  
        0.8000000000         1.0000000000 
s   1 1.0  
        0.0438000000         1.0000000000 
p   1 1.0  
        0.0438000000         1.0000000000 

 14 0 
s   3 1.0  
       18.7311370000         0.0334946000 
        2.8253937000         0.2347269500 
        0.6401217000         0.8137573300 
s   1 1.0  
        0.1612778000         1.0000000000 

 15 0 
s   3 1.0  
       18.7311370000         0.0334946000 
        2.8253937000         0.2347269500 
        0.6401217000         0.8137573300 
s   1 1.0  
        0.1612778000         1.0000000000 

 16 0 
s   3 1.0  
       18.7311370000         0.0334946000 
        2.8253937000         0.2347269500 
        0.6401217000         0.8137573300 
s   1 1.0  
        0.1612778000         1.0000000000 

[5D]
[9G]
[MO]
 Sym=     1a
 Ene=  0.00000000000000E+00
 Spin= Beta
 Occup= 0.000392
  1      -0.074150367268
  2       0.025403635445
  3       0.019637953462
  4      -0.013067948456
  5       0.056184809887
  6       0.019497316770
  7       0.060251958732
  8       0.038057332791
  9      -0.254108743606
 10      -0.264024855089
 11      -0.219728552418
 12      -0.025759865040
 13      -0.109899686826
 14      -0.019837884452
 15      -0.756253864749
 16      -9.342058234072
 17      -1.174328397780
 18      -0.154498409653
 19       0.949503679783
 20       0.076384449654
 21       0.275333587148
 22      -0.038735594914
 23      -0.009599279719
 24      -0.128387972185
 25      -1.159469350622
 26       0.057297670577
 27       0.000925716391
 28      -0.144436243349
 29       0.118576693832
 30       0.090455367365
 31       0.012974281727
 32       0.000474096859
 33       0.004914663596
 34       0.637852881292
 35       2.982055167334
 36      -0.983279760262
 37      -0.075999998042
 38      -0.315025650693
 39       0.131363232131
 40       0.368906070691
 41       0.072211339768
 42       0.003871529756
 43       0.107454999080
 44      -2.125577994500
 45       0.130881462971
 46      -0.024874319156
 47       0.155745225374
 48       0.115242824035
 49       0.120060433423
 50      -0.002288345762
 51       0.012968832228
 52       0.006535620979
 53       1.017953610955
 54       4.271180758165
 55      -0.260288935562
 56       0.128472756473
 57       0.256647709215
 58      -0.011336236371
 59      -0.054466411687
 60      -0.033827247749
 61       0.010529024828
 62       0.006821161593
 63       0.512998000778
 64       0.331827226829
 65      -0.012595485714
 66       0.001487616579
 67       0.007357931488
 68       0.010364377325
 69       0.001018835969
 70      -0.012751220118
 71       0.012511665011
 72      -0.068326771696
 73      -3.495727300005
 74      -1.784198064579
 75      -1.413768137661
 76       0.346156043714
 77      -0.016202488948
 78       0.242087116839
 79       0.053170716237
 80      -0.420340566174
 81       0.011361686647
 82      -0.046635269672
 83       0.001434110503
 84       0.020184936227
 85       0.034324925613
 86      -0.190120081350
 87       0.012810026895
 88       0.017172123160
 89       0.057835049960
 90      -0.006756867624
 91      -0.003844252233
 92      -0.005009020910
 93       0.014210083198
 94      -0.011508715346
 95       0.070417909012
 96       2.006594621474
 97      -6.050717711393
 98      -0.671185388598
 99      -1.079805122705
100       0.055017424024
101      -0.198363041437
102      -0.011442544318
103       0.032130948224
104       0.013880607987
105       0.011307917346
106       0.011339041809
107       0.294438958043
108      -0.168763148186
109      -0.203331138470
110      -0.113913482899
111       0.007352070324
112      -0.002053645336
113       0.004631082952
114      -0.010894627264
115      -0.009212562563
116      -0.086281686442
117       5.191642005903
118      -0.120820816111
119       1.584307523480
120       0.475705698054
121       0.008909256241
122       0.029213060379
123       0.009605851403
124       0.004905073352
125      -0.000330602614
126      -0.282508745188
127      -0.025107041837
128      -0.060093248299
129       0.010731943060
130      -0.002816891560
131       0.012545927569
132       0.001878602913
133       0.006502415727
134       0.003678435393
135       0.055914614475
136       0.475459758216
137       0.045310569937
138       0.035125493765
139      -0.115924955954
140       0.003718922111
141       0.013643520499
142      -0.015711731213
143       0.010345727736
144      -0.001646254609
145      -0.036818475324
146       0.038989212358
147      -0.072207429781
148      -0.001385803658
149      -0.003831239895
150      -0.003403555451
151      -0.003156064892
152       0.004653014908
153       0.005637466839
154       0.036516697703
155      -0.153516492298
156      -0.537269961986
157       0.330682691640
158       0.100544729216
159      -0.040388193829
160       0.269029499426
161       0.001799039417
162       0.011491919602
163      -0.023030286548
164       0.042192370754
165       0.039445896291
166       0.009944263531
167       0.082603349760
168      -0.313192959271
169      -0.239185424996
170       0.010538269543
171      -0.010863995733
172      -0.002648661847
173      -0.022807264279
174       0.008468929022
175      -0.004333174427
176      -0.150920900656
177      -0.218057822415
178       0.037483292530
179       0.228916961627
180       0.058519480502
181      -0.106004421839
182       0.022385336541
183       0.072215318491
184      -0.012165649190
185      -0.217581552767
 Sym=     1a
 Ene=  1.00000000000000E+00
 Spin= Beta
 Occup= 0.032763
  1      -0.003259135910
  2      -0.014307099516
  3      -0.287384123700
  4      -0.021874184326
  5      -0.590881870732
  6       0.008161280193
  7       2.095962329969
  8       0.180606658801
  9       4.614369269592
 10       0.048783344111
 11      -0.089115957233
 12       0.023870549163
 13      -0.031173032259
 14       0.005306146619
 15      -0.027962182909
 16      -0.004070871631
 17       0.044272212474
 18      -0.000033615419
 19       0.135154342065
 20       0.131229738117
 21       0.051241158807
 22      -0.025113285569
 23      -0.003261880912
 24      -0.063687265856
 25      -3.428105891099
 26       0.168787396837
 27       0.038668643944
 28       0.616754046453
 29       0.089416848565
 30       0.041379977713
 31       0.012113582893
 32       0.009198581290
 33       0.002970696931
 34       0.557320577789
 35      -0.539766684528
 36       0.105098571504
 37       0.016106165847
 38       0.029770617425
 39      -0.128019294809
 40      -0.045138319072
 41      -0.024283083778
 42      -0.000746091436
 43      -0.045726820920
 44       3.426170278369
 45       0.359174413373
 46       0.000476396816
 47       0.556426907058
 48      -0.045602362201
 49      -0.062487259189
 50      -0.000726194268
 51      -0.028251087910
 52       0.002010538818
 53      -0.521799609377
 54       0.530962355504
 55      -0.045945425518
 56       0.009820796039
 57       0.057266983274
 58      -0.000270095774
 59       0.013105784392
 60       0.013402252610
 61       0.000051123152
 62       0.020497808085
 63       0.029919158530
 64      -0.204031879820
 65       0.106908207173
 66      -0.391529354539
 67       0.007435046894
 68       0.008728219870
 69      -0.008849835568
 70       0.006787355696
 71      -0.004392052470
 72      -0.004317628413
 73       0.084599347277
 74      -0.214203347023
 75       0.056048945427
 76      -0.163166334581
 77      -0.093439113418
 78      -0.286646250251
 79       0.055867173264
 80       0.094198569671
 81       0.000056593356
 82       0.021718437466
 83      -0.053257839780
 84       0.002301221757
 85       0.003937752600
 86       0.239606855403
 87       0.359205612740
 88      -0.392408991505
 89       0.062638868210
 90      -0.014058175758
 91      -0.009713380523
 92       0.005428445336
 93       0.010368148433
 94       0.000993978364
 95       0.015476044827
 96       0.071675047477
 97       0.203942516020
 98      -0.010225352822
 99      -0.117011473699
100      -0.007534552165
101       0.032084672806
102      -0.000242958039
103       0.045442382080
104       0.022138657590
105      -0.001783423716
106      -0.003151433449
107      -0.350844135458
108       0.167967088103
109      -0.172539296667
110      -0.062802428243
111       0.008686395964
112       0.002735763302
113      -0.003162573073
114      -0.008422874115
115      -0.002296951644
116      -0.051305956609
117      -0.102046635002
118       0.021257930041
119       0.001778825084
120       0.046365811744
121       0.003313037029
122       0.007426320259
123       0.001475997031
124       0.002553125335
125      -0.001568983934
126      -0.083476158793
127      -0.017435920114
128      -0.014122245122
129       0.006067946594
130       0.000881875846
131      -0.001295299934
132       0.001498723461
133      -0.000596156053
134      -0.003115369605
135       0.018643207968
136       0.043694328517
137      -0.036463189597
138      -0.004128266357
139       0.007524855959
140      -0.003177911814
141      -0.005561944097
142      -0.001882488915
143      -0.001548874617
144      -0.002625731653
145       0.085414764750
146      -0.044008633859
147      -0.005891709331
148       0.004990784150
149      -0.001158963065
150       0.000732664774
151      -0.001675332064
152       0.006426898945
153       0.005416578312
154      -0.011550083604
155      -0.051798938788
156      -0.005590513190
157       0.013978340879
158      -0.004463619029
159      -0.001763788508
160       0.010109075104
161      -0.004957875588
162      -0.017008080646
163      -0.013013010880
164      -0.015989284626
165       0.006391370174
166       0.294376966412
167      -0.030249532742
168      -0.079739658558
169       0.084430762860
170      -0.001400968669
171      -0.004823867298
172      -0.006561871252
173      -0.001719756155
174       0.006395242365
175      -0.000522106321
176      -0.006362940935
177      -0.057407387142
178       0.011960935601
179      -0.004373515436
180      -0.011392203380
181      -0.036517501908
182      -0.011922131229
183      -0.017067552202
184       0.005480305742
185      -0.043585405369
 Sym=     1a
 Ene=  2.00000000000000E+00
 Spin= Beta
 Occup= 0.001869
  1       0.368640256195
  2      -2.338500028655
  3      -0.021153474743
  4       0.007573419297
  5       0.026876815402
  6      -1.422742456121
  7       0.014999033485
  8      -0.013125841236
  9      -0.068448094654
 10       0.920372719927
 11       0.702632488262
 12       0.050326648755
 13      -0.172457450345
 14       0.023587039238
 15       3.479816226391
 16      -0.225174319804
 17       0.388723112096
 18       0.050057343605
 19      -0.109499051816
 20      -0.007913060767
 21      -0.602712035775
 22       0.218204969999
 23       0.030321266391
 24       0.537243093294
 25       0.318243070825
 26       0.014660451988
 27       0.010279312174
 28       0.041674715957
 29      -0.151559205830
 30      -0.129664749097
 31      -0.021925519622
 32      -0.000866945933
 33      -0.008707330300
 34      -0.306295325359
 35       0.737872371507
 36      -0.180287841544
 37      -0.038124117934
 38      -0.385579989416
 39      -0.010210404913
 40      -0.596333811672
 41      -0.289186691203
 42      -0.011780080078
 43      -0.482767270786
 44       0.337661181295
 45      -0.097434202810
 46       0.013060722412
 47      -0.006953558733
 48      -0.050685393926
 49      -0.198695546121
 50       0.000828649332
 51      -0.060211173093
 52      -0.002663143875
 53      -0.309182062007
 54       0.508215196252
 55       0.038227325431
 56      -0.031748841948
 57       0.301833794451
 58      -0.010547384154
 59      -0.052464356629
 60       0.039679030721
 61      -0.008158888245
 62      -0.014045115970
 63       0.258528165801
 64      -0.044640848496
 65       0.065367136633
 66       0.050830360850
 67      -0.006984498730
 68      -0.012149102788
 69       0.013779796712
 70       0.009959787009
 71      -0.002930355630
 72      -0.077215245785
 73       0.265799309022
 74       0.181639246160
 75       0.176214663822
 76      -0.202907566968
 77       0.026802057316
 78      -0.143008490964
 79       0.003408464010
 80       0.031472533576
 81       0.002478103506
 82       0.019456995423
 83      -0.014166230351
 84      -0.000195456811
 85       0.004063669256
 86      -0.065746165467
 87       0.183978181247
 88       0.064355636409
 89      -0.017693357685
 90       0.000094116902
 91       0.000753237998
 92      -0.002525282836
 93      -0.006022529793
 94      -0.003186726269
 95       0.005293892605
 96      -0.134682986536
 97       0.456276685270
 98      -0.117603863449
 99       0.275033141173
100       0.023529888790
101       0.020200995742
102       0.001507068648
103       0.013970458306
104       0.001310335135
105      -0.001893552842
106      -0.000249349702
107      -0.089580996455
108      -0.009474663929
109      -0.140664178871
110      -0.024175731040
111       0.001929870989
112      -0.003957998060
113      -0.000376829082
114      -0.002157806232
115      -0.001554000963
116      -0.003554446643
117      -0.601152310834
118       0.060484017274
119      -0.117396037725
120      -0.101840194167
121       0.003756627284
122       0.018106549912
123      -0.002309071860
124       0.001931680714
125       0.000705037081
126      -0.113005905491
127       0.022276635282
128      -0.026926819445
129      -0.006767376638
130      -0.000250549525
131      -0.001129306630
132      -0.000400225917
133       0.001237074704
134       0.002245272474
135       0.022627477670
136      -0.042418820612
137      -0.018419672060
138      -0.015719469920
139       0.017974347488
140      -0.002561014975
141      -0.014150669548
142       0.001765417852
143       0.000677686718
144       0.001119335432
145       0.090463649838
146      -0.033150663323
147      -0.014904733533
148      -0.008136047328
149      -0.000303464193
150       0.002461660224
151       0.000366953649
152       0.000957862934
153       0.002927852313
154      -0.015151620297
155       0.109469203578
156       0.027687899713
157      -0.036388983925
158      -0.017827325662
159       0.000113697379
160      -0.029812506755
161       0.000267448009
162       0.003584165882
163      -0.006775947115
164      -0.011364530549
165      -0.004865109957
166      -0.013618840982
167      -0.014460264722
168       0.055356300531
169       0.029948665858
170       0.001081141133
171      -0.002249968802
172       0.001880061879
173       0.003639522367
174       0.003486627856
175       0.001686926786
176       0.149306596084
177       0.033176075567
178      -0.010995864296
179      -0.033849275089
180       0.002631584798
181      -0.002262351501
182      -0.004794765877
183      -0.005306730669
184      -0.000300788758
185       0.041711692390
 Sym=     1a
 Ene=  3.00000000000000E+00
 Spin= Beta
 Occup= 1.991985
  1      -0.059882682124
  2       0.304185542461
  3      -0.118737961663
  4      -0.008059164617
  5      -0.258760457885
  6       0.168861192800
  7       0.050502615723
  8       0.006069806731
  9       0.118247023165
 10       0.026811226591
 11       0.046944951005
 12       0.001841670883
 13       0.006146776660
 14       0.001743254689
 15       0.011535749847
 16       0.017602777869
 17       0.002428987752
 18       0.000613216298
 19      -0.004488979165
 20       0.013390637482
 21      -0.012181515001
 22       0.013225091793
 23       0.001673225153
 24       0.039167727656
 25      -0.194144339285
 26       0.024347895966
 27       0.004261076561
 28       0.078427312363
 29      -0.009984591050
 30      -0.001091837979
 31      -0.001025125767
 32       0.001337109780
 33      -0.000077565218
 34       0.025610502390
 35      -0.046971875806
 36       0.000432358537
 37       0.000646952180
 38       0.007907236209
 39      -0.054169642621
 40       0.266805416938
 41       0.207638625976
 42       0.005243493946
 43       0.320403949316
 44       0.226543151091
 45       0.091861949068
 46       0.001197397025
 47       0.130115368335
 48       0.011095390008
 49       0.028942158608
 50       0.000632729831
 51       0.003852549003
 52       0.000864008115
 53      -0.013786372545
 54      -0.044603272720
 55      -0.001218031568
 56       0.000557655109
 57       0.014833865010
 58       0.001309882361
 59      -0.004224500901
 60       0.020382777919
 61      -0.004450499416
 62      -0.002445503731
 63      -0.002713356614
 64      -0.010414184656
 65       0.004847464443
 66      -0.026323387014
 67       0.001486692234
 68       0.000479696371
 69      -0.000233680943
 70      -0.000264972221
 71      -0.000319166185
 72      -0.002091939167
 73       0.020003143342
 74      -0.027466760675
 75       0.010129851822
 76      -0.004229059023
 77      -0.010905591672
 78      -0.024036840242
 79       0.003157954849
 80      -0.003480161713
 81      -0.000522936395
 82       0.001075449873
 83      -0.006458465171
 84       0.001743190756
 85       0.002248173903
 86       0.022255013068
 87       0.028881196340
 88      -0.030278613426
 89      -0.002839002867
 90      -0.000817443510
 91      -0.000275971324
 92       0.000632947515
 93       0.000502164305
 94      -0.000112297378
 95       0.001597240812
 96       0.007119855357
 97      -0.001071588042
 98       0.002139122828
 99      -0.007626358289
100      -0.000632011215
101       0.001715424355
102      -0.000225729678
103       0.003073501362
104       0.002946480754
105       0.000818128369
106       0.000627739668
107      -0.028766714390
108       0.013990050932
109      -0.011837549197
110      -0.004045082809
111       0.000604549670
112       0.000082918356
113      -0.000174070466
114      -0.000428319726
115      -0.000114002606
116      -0.005086602452
117       0.005953792844
118      -0.000036612042
119       0.000269276065
120       0.002193094185
121       0.000101887611
122      -0.001391595135
123       0.000833855850
124       0.000067231614
125       0.000087317600
126      -0.000808758252
127      -0.002824800862
128       0.000239156768
129       0.000422222113
130      -0.000181496037
131      -0.000026882935
132       0.000221700348
133      -0.000127027490
134      -0.000448258320
135       0.000049929782
136       0.005297729567
137      -0.004057615911
138       0.000438465644
139      -0.000297990439
140      -0.000154322440
141       0.000958831707
142      -0.000403652485
143      -0.000230462023
144      -0.000295045805
145       0.002503142252
146      -0.002721820052
147       0.000432380099
148       0.000600446971
149       0.000004771766
150      -0.000025900986
151      -0.000174277887
152       0.000362945250
153       0.000338074899
154       0.000011871733
155      -0.001992823205
156      -0.001084891808
157       0.001381279387
158       0.000221202968
159       0.000118960066
160       0.001643156149
161      -0.000215838648
162       0.000439945410
163      -0.002135289824
164      -0.001294383132
165      -0.000084759940
166       0.019182758431
167       0.001442649173
168       0.003265797658
169       0.009950617896
170       0.000026122756
171       0.000010008081
172      -0.000324130638
173       0.000025959867
174       0.000480459830
175       0.000306310853
176      -0.005977627502
177      -0.001190275824
178       0.001816338616
179       0.000261098782
180      -0.000540173017
181      -0.012697414642
182      -0.001804223694
183      -0.006647443413
184       0.001494776261
185      -0.002756171103
 Sym=     1a
 Ene=  4.00000000000000E+00
 Spin= Beta
 Occup= 0.043861
  1       0.083418560167
  2      -0.723636377727
  3       0.368808678980
  4       0.022420544369
  5       0.768504832302
  6      -0.329701276730
  7      -0.187575799461
  8      -0.020640951746
  9      -0.435488836283
 10      -0.052543854613
 11      -0.077341207277
 12      -0.003009434020
 13      -0.009545763183
 14      -0.002814105032
 15      -0.224109040058
 16       0.048613200353