[Molden Format]
[Atoms] (AU)
C    1    6        -5.051699155810      -0.155558887614       0.866660867597
O    2    8        -4.272341337980      -0.046240949141       2.939989617026
O    3    8        -6.097568761073      -0.201745812329      -1.084110323620
N    4    7        -0.780783693746      -1.038863006556      -1.016024943072
H    5    1        -0.799187799603      -0.897708395769      -2.937931654453
H    6    1        -0.354431868859      -2.876258686649      -0.621033890756
C    7    6         1.152819775677       0.611673284427       0.050783074212
H    8    1         0.799285935075       0.747398272356       2.096692944185
C    9    6         3.771705676167      -0.587314926142      -0.186011962617
O   10    8         4.126647063288      -2.799637863610      -0.680153752706
O   11    8         5.682093242570       1.038009174690       0.305346938992
H   12    1         7.257221643904       0.079915730035       0.211101463528
C   13    6         0.975180795180       3.276294255383      -1.072838876042
H   14    1        -0.921147583923       4.035527251321      -0.750198589729
H   15    1         2.353746421851       4.544728054510      -0.205197975694
H   16    1         1.322092067503       3.246687617499      -3.117047464969
[GTO]
  1 0
 s    6  1.00
     3047.5249000000         0.0018347000
      457.3695100000         0.0140373000
      103.9486900000         0.0688426000
       29.2101550000         0.2321844000
        9.2866630000         0.4679413000
        3.1639270000         0.3623120000
 s    3  1.00
        7.8682724000        -0.1193324000
        1.8812885000        -0.1608542000
        0.5442493000         1.1434564000
 p    3  1.00
        7.8682724000         0.0689991000
        1.8812885000         0.3164240000
        0.5442493000         0.7443083000
 s    1  1.00
        0.1687144000         1.0000000000
 p    1  1.00
        0.1687144000         1.0000000000
 d    1  1.00
        0.8000000000         1.0000000000
 s    1  1.00
        0.0438000000         1.0000000000
 p    1  1.00
        0.0438000000         1.0000000000

  2 0
 s    6  1.00
     5484.6717000000         0.0018311000
      825.2349500000         0.0139501000
      188.0469600000         0.0684451000
       52.9645000000         0.2327143000
       16.8975700000         0.4701930000
        5.7996353000         0.3585209000
 s    3  1.00
       15.5396160000        -0.1107775000
        3.5999336000        -0.1480263000
        1.0137618000         1.1307670000
 p    3  1.00
       15.5396160000         0.0708743000
        3.5999336000         0.3397528000
        1.0137618000         0.7271586000
 s    1  1.00
        0.2700058000         1.0000000000
 p    1  1.00
        0.2700058000         1.0000000000
 d    1  1.00
        0.8000000000         1.0000000000
 s    1  1.00
        0.0845000000         1.0000000000
 p    1  1.00
        0.0845000000         1.0000000000

  3 0
 s    6  1.00
     5484.6717000000         0.0018311000
      825.2349500000         0.0139501000
      188.0469600000         0.0684451000
       52.9645000000         0.2327143000
       16.8975700000         0.4701930000
        5.7996353000         0.3585209000
 s    3  1.00
       15.5396160000        -0.1107775000
        3.5999336000        -0.1480263000
        1.0137618000         1.1307670000
 p    3  1.00
       15.5396160000         0.0708743000
        3.5999336000         0.3397528000
        1.0137618000         0.7271586000
 s    1  1.00
        0.2700058000         1.0000000000
 p    1  1.00
        0.2700058000         1.0000000000
 d    1  1.00
        0.8000000000         1.0000000000
 s    1  1.00
        0.0845000000         1.0000000000
 p    1  1.00
        0.0845000000         1.0000000000

  4 0
 s    6  1.00
     4173.5110000000         0.0018348000
      627.4579000000         0.0139950000
      142.9021000000         0.0685870000
       40.2343300000         0.2322410000
       12.8202100000         0.4690700000
        4.3904370000         0.3604550000
 s    3  1.00
       11.6263580000        -0.1149610000
        2.7162800000        -0.1691180000
        0.7722180000         1.1458520000
 p    3  1.00
       11.6263580000         0.0675800000
        2.7162800000         0.3239070000
        0.7722180000         0.7408950000
 s    1  1.00
        0.2120313000         1.0000000000
 p    1  1.00
        0.2120313000         1.0000000000
 d    1  1.00
        0.8000000000         1.0000000000
 s    1  1.00
        0.0639000000         1.0000000000
 p    1  1.00
        0.0639000000         1.0000000000

  5 0
 s    3  1.00
       18.7311370000         0.0334946000
        2.8253937000         0.2347269500
        0.6401217000         0.8137573300
 s    1  1.00
        0.1612778000         1.0000000000

  6 0
 s    3  1.00
       18.7311370000         0.0334946000
        2.8253937000         0.2347269500
        0.6401217000         0.8137573300
 s    1  1.00
        0.1612778000         1.0000000000

  7 0
 s    6  1.00
     3047.5249000000         0.0018347000
      457.3695100000         0.0140373000
      103.9486900000         0.0688426000
       29.2101550000         0.2321844000
        9.2866630000         0.4679413000
        3.1639270000         0.3623120000
 s    3  1.00
        7.8682724000        -0.1193324000
        1.8812885000        -0.1608542000
        0.5442493000         1.1434564000
 p    3  1.00
        7.8682724000         0.0689991000
        1.8812885000         0.3164240000
        0.5442493000         0.7443083000
 s    1  1.00
        0.1687144000         1.0000000000
 p    1  1.00
        0.1687144000         1.0000000000
 d    1  1.00
        0.8000000000         1.0000000000
 s    1  1.00
        0.0438000000         1.0000000000
 p    1  1.00
        0.0438000000         1.0000000000

  8 0
 s    3  1.00
       18.7311370000         0.0334946000
        2.8253937000         0.2347269500
        0.6401217000         0.8137573300
 s    1  1.00
        0.1612778000         1.0000000000

  9 0
 s    6  1.00
     3047.5249000000         0.0018347000
      457.3695100000         0.0140373000
      103.9486900000         0.0688426000
       29.2101550000         0.2321844000
        9.2866630000         0.4679413000
        3.1639270000         0.3623120000
 s    3  1.00
        7.8682724000        -0.1193324000
        1.8812885000        -0.1608542000
        0.5442493000         1.1434564000
 p    3  1.00
        7.8682724000         0.0689991000
        1.8812885000         0.3164240000
        0.5442493000         0.7443083000
 s    1  1.00
        0.1687144000         1.0000000000
 p    1  1.00
        0.1687144000         1.0000000000
 d    1  1.00
        0.8000000000         1.0000000000
 s    1  1.00
        0.0438000000         1.0000000000
 p    1  1.00
        0.0438000000         1.0000000000

  10 0
 s    6  1.00
     5484.6717000000         0.0018311000
      825.2349500000         0.0139501000
      188.0469600000         0.0684451000
       52.9645000000         0.2327143000
       16.8975700000         0.4701930000
        5.7996353000         0.3585209000
 s    3  1.00
       15.5396160000        -0.1107775000
        3.5999336000        -0.1480263000
        1.0137618000         1.1307670000
 p    3  1.00
       15.5396160000         0.0708743000
        3.5999336000         0.3397528000
        1.0137618000         0.7271586000
 s    1  1.00
        0.2700058000         1.0000000000
 p    1  1.00
        0.2700058000         1.0000000000
 d    1  1.00
        0.8000000000         1.0000000000
 s    1  1.00
        0.0845000000         1.0000000000
 p    1  1.00
        0.0845000000         1.0000000000

  11 0
 s    6  1.00
     5484.6717000000         0.0018311000
      825.2349500000         0.0139501000
      188.0469600000         0.0684451000
       52.9645000000         0.2327143000
       16.8975700000         0.4701930000
        5.7996353000         0.3585209000
 s    3  1.00
       15.5396160000        -0.1107775000
        3.5999336000        -0.1480263000
        1.0137618000         1.1307670000
 p    3  1.00
       15.5396160000         0.0708743000
        3.5999336000         0.3397528000
        1.0137618000         0.7271586000
 s    1  1.00
        0.2700058000         1.0000000000
 p    1  1.00
        0.2700058000         1.0000000000
 d    1  1.00
        0.8000000000         1.0000000000
 s    1  1.00
        0.0845000000         1.0000000000
 p    1  1.00
        0.0845000000         1.0000000000

  12 0
 s    3  1.00
       18.7311370000         0.0334946000
        2.8253937000         0.2347269500
        0.6401217000         0.8137573300
 s    1  1.00
        0.1612778000         1.0000000000

  13 0
 s    6  1.00
     3047.5249000000         0.0018347000
      457.3695100000         0.0140373000
      103.9486900000         0.0688426000
       29.2101550000         0.2321844000
        9.2866630000         0.4679413000
        3.1639270000         0.3623120000
 s    3  1.00
        7.8682724000        -0.1193324000
        1.8812885000        -0.1608542000
        0.5442493000         1.1434564000
 p    3  1.00
        7.8682724000         0.0689991000
        1.8812885000         0.3164240000
        0.5442493000         0.7443083000
 s    1  1.00
        0.1687144000         1.0000000000
 p    1  1.00
        0.1687144000         1.0000000000
 d    1  1.00
        0.8000000000         1.0000000000
 s    1  1.00
        0.0438000000         1.0000000000
 p    1  1.00
        0.0438000000         1.0000000000

  14 0
 s    3  1.00
       18.7311370000         0.0334946000
        2.8253937000         0.2347269500
        0.6401217000         0.8137573300
 s    1  1.00
        0.1612778000         1.0000000000

  15 0
 s    3  1.00
       18.7311370000         0.0334946000
        2.8253937000         0.2347269500
        0.6401217000         0.8137573300
 s    1  1.00
        0.1612778000         1.0000000000

  16 0
 s    3  1.00
       18.7311370000         0.0334946000
        2.8253937000         0.2347269500
        0.6401217000         0.8137573300
 s    1  1.00
        0.1612778000         1.0000000000

[MO]
 Sym= A
 Ene=        -0.0002601604
 Spin= Alpha
 Occup= -0.0005
  1       0.002472795005
  2       0.047933518301
  3      -0.041645918157
  4      -0.000328904013
  5       0.022777122591
  6       0.332171897674
  7      -0.008357126748
  8       0.049225453500
  9       0.091482261360
 10       0.012786249491
 11      -0.068579713585
 12       0.029054108692
 13       0.000177722622
 14      -0.013781801227
 15      -0.000097039211
 16       1.152342349324
 17       0.235115986200
 18       0.139970903126
 19       0.072949317564
 20       0.007507019548
 21       0.091024205810
 22      -0.068377876528
 23      -0.001325920503
 24       0.017943542300
 25      -0.346580754640
 26       0.218598042228
 27       0.006292519951
 28       0.090039054921
 29      -0.001626273320
 30       0.016981205359
 31       0.014707824392
 32       0.022659697827
 33      -0.052694833488
 34       0.004238838403
 35      -0.410138995785
 36       0.011599311066
 37       0.130908417272
 38       0.229821643328
 39       0.009590693640
 40       0.167426310034
 41      -0.045580085021
 42       0.010141091182
 43      -0.005273882787
 44      -0.469730926491
 45       0.032807600810
 46      -0.023726026373
 47      -0.066922038445
 48       0.042969464230
 49       0.004473403652
 50      -0.000860329311
 51      -0.001885302194
 52       0.028463285760
 53      -0.017096341508
 54      -0.260085844451
 55      -0.131330660995
 56       0.003778199325
 57       0.013225571697
 58      -0.010011606658
 59      -0.070993425945
 60      -0.185528941878
 61       0.082239175728
 62       0.082163872740
 63       0.123227342064
 64       0.797830530583
 65      -0.358272148723
 66      -0.289432979452
 67       0.012629637257
 68      -0.019129227358
 69      -0.017217248327
 70      -0.021310766867
 71      -0.016648085235
 72       0.026612750362
 73      -0.090041848640
 74      -1.757226547006
 75       0.506932793663
 76       0.841041930302
 77      -0.083550774727
 78       0.291995127582
 79      -0.028868674896
 80      -0.034667305048
 81      -0.002922046345
 82       0.028032335067
 83       0.136243039050
 84      -0.054622395287
 85      -0.003374503948
 86       0.202367181531
 87      -0.298755240864
 88       0.027010953872
 89       0.082727669009
 90      -0.030521818505
 91      -0.005133567440
 92       0.019028585554
 93      -0.003649326298
 94      -0.008610897496
 95      -0.073219202913
 96      10.098563638231
 97       5.877261476194
 98      -2.545234591063
 99      -1.272227287154
100      -0.060184588317
101       0.119196659988
102      -0.004499421182
103       0.112452924502
104      -0.068437640096
105       0.021633973201
106       0.004377419312
107       0.060719320401
108       0.887755945350
109       0.407794037040
110       0.139362800427
111       0.016956598849
112      -0.095094333527
113       0.004338636343
114      -0.084118101366
115       0.013549208414
116      -0.076510568818
117     -10.756779013659
118       3.243229541368
119      -0.791269491831
120      -0.037067807166
121       0.005122249642
122      -0.008285265353
123       0.232535749157
124       0.038554133718
125       0.047136322892
126       0.088628319773
127      -0.923411184669
128      -0.005366206191
129      -0.113299711567
130       0.033550231053
131       0.045347156755
132       0.018912244426
133      -0.167612368040
134      -0.009794790281
135      -0.015328920986
136       0.723974777886
137       0.175573186873
138       0.250156682327
139       0.000423466446
140       0.023912578843
141       0.280232911656
142       0.126477134397
143       0.015320341343
144       0.023096714212
145      -1.031467529455
146      -0.253740801023
147       0.104971348246
148      -0.018760282569
149       0.102710853887
150       0.046454728181
151       0.026862894559
152       0.051802952921
153       0.030541423008
154       0.006445009521
155      -0.935828698057
156       0.430226867061
157       0.324879385876
158       0.090689498511
159       0.043025771141
160      -0.105876159200
161       0.003764607774
162      -0.013507662553
163      -0.016535048574
164       0.060690023796
165       0.003431308874
166       0.016080477335
167       0.156710513403
168      -0.121797931995
169      -0.005776408533
170      -0.027555499841
171       0.049000444057
172       0.019043720532
173      -0.045769801452
174      -0.016513474126
175       0.045906749545
176       0.805110952448
177      -0.975977371426
178       0.221653166540
179       0.429552229497
180       0.022826154883
181      -0.001806349509
182       0.042007534471
183      -0.268571401940
184      -0.004708524234
185       0.003775393129
 Sym= A
 Ene=        -0.0001398752
 Spin= Alpha
 Occup= -0.0003
  1      -0.014083205214
  2      -0.200280578622
  3       0.056088925065
  4       0.010569028715
  5      -0.051305824756
  6      -0.473917969349
  7      -0.084299106066
  8      -0.057132131321
  9      -0.484367004312
 10       0.011381716790
 11       0.098069285218
 12      -0.030745734044
 13       0.025160140089
 14       0.005667406960
 15      -0.011872285240
 16      -0.003687812768
 17       0.365483130764
 18       0.022968920968
 19      -0.169792899784
 20      -0.035954656448
 21      -0.317904142714
 22       0.076918083618
 23       0.009804287763
 24      -0.027811286467
 25       1.226168736587
 26      -0.291715767624
 27      -0.036755785697
 28      -0.260428114154
 29      -0.062463885453
 30      -0.106789918075
 31      -0.095534387635
 32      -0.007255198048
 33       0.092212572583
 34       0.008946024586
 35       0.678613818913
 36       0.206624358405
 37      -0.099794614462
 38      -0.299076983975
 39      -0.030553219626
 40      -0.302325051449
 41       0.057341299496
 42      -0.002447254648
 43       0.009058694217
 44       0.769484876406
 45      -0.052883736658
 46       0.014345348547
 47       0.060213817686
 48      -0.115368239192
 49      -0.099889488893
 50      -0.049913289495
 51       0.001282581132
 52      -0.039674365263
 53       0.008944560413
 54       0.155281713377
 55       0.214375112253
 56      -0.067373124983
 57       0.006048111368
 58      -0.020319113872
 59      -0.177241477433
 60       0.205929270962
 61      -0.029602869101
 62      -0.105843736463
 63       0.642966979104
 64      -0.842452455614
 65       0.133902024813
 66       0.364075838139
 67      -0.034858899130
 68      -0.036200503034
 69      -0.065448929701
 70      -0.012211561285
 71       0.045446152117
 72      -0.040258926283
 73      -0.539601971446
 74       2.106371838132
 75      -0.447097008257
 76      -1.068887754900
 77       0.111214512938
 78      -0.333362849051
 79      -0.007294201861
 80       0.160465348284
 81      -0.006676139095
 82       0.048825936313
 83       0.051325910350
 84      -0.062969327750
 85      -0.018876512523
 86       0.450346234770
 87       0.160225557875
 88      -0.053142515118
 89      -0.045466151100
 90      -0.083089574335
 91       0.021929405463
 92       0.010835886011
 93       0.025408404895
 94      -0.035099474364
 95       0.052623101542
 96       4.648451897028
 97       0.874228005514
 98       0.324354893216
 99       0.147724619483
100       0.014038459868
101      -0.047151236994
102       0.006810297142
103       0.079985492278
104      -0.009237890234
105       0.035429166420
106       0.009755027343
107      -0.373526925982
108       0.492381818424
109      -0.479413761864
110      -0.018322394674
111       0.053828003474
112      -0.028047729307
113      -0.020660817472
114      -0.136951450957
115      -0.013582922649
116       0.047657164281
117      -2.868434629328
118       1.464290093323
119      -0.774244583772
120      -0.129258211024
121       0.028262770953
122       0.231514657170
123       0.134555050115
124      -0.040665351871
125      -0.022885098125
126      -0.826747361427
127      -0.458086635671
128       0.001355746659
129       0.011815079033
130       0.090525126950
131       0.123586837637
132       0.062958632551
133      -0.116959901468
134      -0.082626918077
135       0.017885719559
136      -0.508920151958
137       0.520631910237
138       0.054462484664
139       0.132078483179
140       0.008069981482
141       0.106364681975
142       0.070713085645
143      -0.021488905954
144       0.067038786037
145      -0.212258895539
146      -0.269115146648
147       0.091152982939
148      -0.215252221245
149       0.080382577715
150      -0.014618451554
151       0.018544853657
152       0.037717241620
153       0.035476339784
154      -0.004479749007
155      -0.130671596824
156       0.098914581542
157       0.198194274993
158       0.214599441002
159       0.060278877074
160      -0.234251715217
161      -0.003095476727
162      -0.056698095908
163       0.022844725091
164       0.044141471781
165       0.016969059063
166       0.049727659812
167      -0.007328479160
168      -0.123593940318
169      -0.127028058733
170       0.024799697127
171      -0.014071390161
172       0.002756902326
173       0.045929262610
174      -0.041749015492
175      -0.073242289548
176      -1.369667789461
177      -0.017369533887
178       0.472251235954
179      -0.213571632804
180      -0.063065369387
181       0.350638845909
182       0.080154153680
183      -0.200918376961
184      -0.004083821746
185      -0.221244957708
 Sym= A
 Ene=        -0.0000958734
 Spin= Alpha
 Occup= -0.0002
  1      -0.000819639699
  2      -0.023192662266
  3       0.013528446383
  4       0.004841293246
  5      -0.006578355293
  6      -0.061772692244
  7       0.100713681352
  8       0.004520283787
  9       0.235583093558
 10       0.003101675833
 11       0.015944502649
 12      -0.008787659731
 13       0.002733608452
 14       0.007750609849
 15      -0.009599257665
 16       0.041200463934
 17       0.033047716341
 18       0.029776266038
 19      -0.060488708648
 20       0.009125901936
 21       0.059700409262
 22       0.024597341734
 23      -0.000057973180
 24       0.005525559728
 25      -0.286691273329
 26      -0.064425622218
 27       0.001030818215
 28       0.010914535110
 29       0.023715709596
 30       0.028123381144
 31       0.036306878120
 32       0.010010075485
 33       0.009520026296
 34      -0.001143472564
 35       0.051431688614
 36       0.033433302138
 37       0.026573236779
 38      -0.028186350640
 39      -0.006666417652
 40      -0.051064778474
 41       0.002726117224
 42       0.007677613372
 43       0.002071777648
 44       0.277701991765
 45       0.034365733677
 46      -0.012619899299
 47       0.051201412223
 48      -0.015187633401
 49      -0.014666699194
 50      -0.016504092086
 51      -0.010194677608
 52       0.006605210971
 53      -0.005302349514
 54       0.137508658374
 55       0.060719778983
 56      -0.040876063449
 57       0.046676812399
 58      -0.009524730212
 59      -0.019287334838
 60       0.022943323430
 61       0.012626339917
 62      -0.002747114285
 63       0.279986766674
 64      -0.043193098985
 65      -0.080848955487
 66       0.042064145596
 67      -0.029164424738
 68      -0.023986198523
 69      -0.022696372224
 70      -0.019409076299
 71       0.017188824224
 72       0.009145001635
 73       1.359715331501
 74       0.610122302075
 75       0.327698766943
 76      -0.371055648682
 77       0.002352564868
 78      -0.259567226477
 79       0.003727838924
 80      -0.266804016944
 81       0.000347145330
 82      -0.025102178915
 83      -0.014938954703
 84      -0.062169590173
 85       0.023220140015
 86       0.067309002114
 87       0.294320480050
 88       0.264507331766
 89      -0.162555236431
 90       0.000150000039
 91       0.017004200098
 92       0.011418024011
 93       0.002307949207
 94       0.069098513851
 95      -0.058857186830
 96      -2.082772751982
 97       1.257854501129
 98      -2.476667073889
 99       2.131591137122
100      -0.009062579217
101       0.201353196505
102       0.002341912991
103       0.051900225292
104       0.012270027747
105       0.051355143868
106      -0.119776263613
107      -0.208956189389
108       0.171090972388
109      -0.218357834754
110       0.005961209650
111       0.033076869485
112      -0.002091350727
113      -0.057776404326
114       0.050034944899
115      -0.180431512881
116      -0.146014957430
117      -3.071331013054
118       1.192209960121
119       0.163190346982
120      -1.529102431132
121       0.014985980416
122       0.083885818443
123       0.029024391211
124       0.001760961499
125      -0.060801027351
126      -0.328430625990
127      -0.103924638854
128       0.029982770145
129       0.019844451584
130       0.045216799123
131       0.050317342879
132       0.068378824059
133      -0.052304389982
134       0.058371263317
135       0.114788380038
136      -0.137508729273
137       0.045531033538
138      -0.250963338481
139       0.654439611668
140       0.001916863997
141       0.010725899272
142       0.033805259805
143       0.044122922844
144      -0.320262361936
145      -0.038521854663
146      -0.108176731026
147      -0.128101801767
148       1.026702406757
149       0.017577178940
150      -0.001673633868
151      -0.006669648364
152       0.016714121027
153      -0.024906860908
154      -0.049778866718
155       0.284871311947
156      -0.167607646275
157       0.148647825729
158      -0.963563490048
159       0.024065406084
160      -0.046885997983
161       0.013736881038
162       0.046520967031
163       0.024526881865
164       0.047393350205
165      -0.072682824417
166      -0.227253464097
167      -0.236655513231
168       0.040357819413
169       0.151611909753
170       0.037360315640
171       0.035191141559
172       0.004026506082
173       0.012533135163
174       0.034474280441
175      -0.030899314569
176       4.629960228481
177      -0.272890655160
178      -0.729885441690
179      -0.013455023467
180      -0.014827608872
181      -0.141421493260
182       0.029192680338
183      -0.010339047245
184       0.157818136433
185      -0.354695768348
 Sym= A
 Ene=        -0.0000582081
 Spin= Alpha
 Occup= -0.0001
  1      -0.005273413290
  2      -0.051338140464
  3       0.011482482113
  4       0.005616024365
  5      -0.018794028010
  6      -0.253537687719
  7       0.079800434728
  8       0.011728563934
  9       0.256875474145
 10       0.006662368089
 11       0.017831138295
 12      -0.019667149108
 13      -0.001142084693
 14       0.019106965586
 15       0.006519782759
 16      -0.420716811652
 17      -0.144981236707
 18      -0.028126831630
 19      -0.067944116402
 20       0.007740889174
 21       0.045279872885
 22       0.027617210341
 23       0.012124975210
 24       0.011099143019
 25      -0.286070572026
 26      -0.110350723593
 27      -0.028747487721
 28      -0.062443145566
 29       0.024708399902
 30       0.008487465020
 31       0.037336899333
 32      -0.005134791885
 33       0.025254447476
 34       0.016457310352
 35       0.456648210971
 36       0.212918806515
 37      -0.059798952275
 38      -0.041794834292
 39      -0.034391692343
 40      -0.202920162657
 41       0.001618560207
 42       0.003825105069
 43       0.027175306671
 44       0.827394798943
 45       0.067404280344
 46      -0.008481640924
 47       0.011512573727
 48      -0.106327857321
 49      -0.107028110147
 50      -0.114726494752
 51      -0.008717970195
 52       0.005263422658
 53      -0.002068949494
 54       0.199414647544
 55       0.185747781137
 56      -0.030279223724
 57       0.106310303086
 58      -0.017158630553
 59      -0.018623577276
 60       0.040334874668
 61       0.063612064876
 62       0.014587727266
 63       0.061441575963
 64      -0.182346028497
 65      -0.136551854650
 66      -0.035625764938
 67      -0.062778139896
 68      -0.042256367685
 69      -0.060479129048
 70      -0.051436420092
 71      -0.003839736173
 72      -0.023042541675
 73       1.111339485003
 74       0.798634048992
 75       0.261619836475
 76      -0.041729021920
 77      -0.047688474173
 78       0.181656317685
 79      -0.083016883765
 80       0.339685333739
 81       0.001182955390
 82      -0.007457146103
 83      -0.091430650982
 84      -0.015165900084
 85      -0.015226709400
 86      -0.116574352762
 87       0.072652510809
 88      -0.164088715849
 89       0.008076251022
 90       0.004736860841
 91       0.037787330814
 92      -0.015170508739
 93      -0.048632416223
 94      -0.042928062433
 95       0.022669360830
 96     -11.328098886419
 97      -2.530906960336
 98       1.318049488093
 99       1.124861356229
100       0.030806915724
101      -0.111601311758
102      -0.011566543602
103      -0.081397001675
104      -0.037470331607
105      -0.147302860388
106      -0.049047771720
107      -0.099986084071
108      -0.025114597577
109       1.043676630483
110       0.231375398676
111      -0.066323076049
112      -0.002925103321
113      -0.012592772793
114       0.039869899461
115      -0.020958214660
116      -0.013859826937
117       8.520415403788
118      -2.952972569939
119       1.426554736165
120       0.004446764699
121      -0.084139268680
122      -0.408543823481
123      -0.018736920850
124       0.112495334754
125       0.010076114695
126       1.931450231332
127      -0.009113426291
128      -0.130486248601
129      -0.019487664415
130      -0.278717309195
131      -0.328448997683
132      -0.240289234055
133       0.045057293435
134       0.004323940055
135      -0.017192021919
136       0.610863487966
137       0.481460307599
138       0.633149317878
139       0.296338859588
140       0.053635822798
141       0.299433276526
142       0.002970099679
143       0.205250236883
144       0.019859503773
145      -1.275284155526
146       0.059068443215
147      -0.715818210372
148      -0.070335148901
149       0.175485929911
150       0.214460572426
151       0.157235696324
152      -0.015727799053
153       0.011575880613
154       0.005338164619
155      -0.491876028866
156       0.501759421782
157       1.115184766387
158       0.217397496005
159      -0.048772902630
160       0.211176628131
161       0.007520854205
162       0.018046453671
163       0.091512903180
164       0.015162588772
165       0.020786263026
166       0.151114408946
167      -0.360454040224
168       0.029060469083
169       0.021097794882
170       0.022235872852
171       0.015009551179
172       0.023589183111
173      -0.034150715837
174      -0.032514143389
175      -0.025883133011
176       1.436685016943
177       0.627792393638
178      -0.366144777036
179       0.061960705033
180      -0.119084314519
181       0.051262365490
182       0.159219778726
183      -0.521115468310
184       0.010967852341
185      -0.027013385530
 Sym= A
 Ene=        -0.0000451856
 Spin= Alpha
 Occup= -0.0001
  1       0.006995681864
  2       0.043766867227
  3       0.007165666544
  4      -0.011383008901
  5      -0.004172750975
  6      -0.004407314261
  7      -0.020451781997
  8       0.041119603303
  9       0.091941665378
 10       0.026125668716
 11       0.002036082347
 12       0.023919720731
 13       0.013573708341
 14       0.035431660434
 15       0.035478213430
 16       0.770197841662
 17       0.366964753558
 18      -0.084993330314
 19       0.031722127046
 20      -0.021854675219
 21      -0.115308866911
 22       0.000220638866
 23       0.013403367690
 24      -0.022325815602
 25       0.458913245692
 26       0.027469800348
 27      -0.034980652560
 28       0.113811925930
 29      -0.065829508079
 30      -0.063774208268
 31      -0.097634425855
 32      -0.014368310430
 33       0.013445276236
 34       0.012438947398
 35      -0.904610240750
 36      -0.020402678831
 37      -0.007405825504
 38       0.226469229087
 39      -0.015059824959