
    -----------------------------------------------------------------------
          Psi4: An Open-Source Ab Initio Electronic Structure Package
                               Psi4 1.2.1 release

                         Git: Rev {HEAD} 406f4de 


    R. M. Parrish, L. A. Burns, D. G. A. Smith, A. C. Simmonett,
    A. E. DePrince III, E. G. Hohenstein, U. Bozkaya, A. Yu. Sokolov,
    R. Di Remigio, R. M. Richard, J. F. Gonthier, A. M. James,
    H. R. McAlexander, A. Kumar, M. Saitow, X. Wang, B. P. Pritchard,
    P. Verma, H. F. Schaefer III, K. Patkowski, R. A. King, E. F. Valeev,
    F. A. Evangelista, J. M. Turney, T. D. Crawford, and C. D. Sherrill,
    J. Chem. Theory Comput. 13(7) pp 3185--3197 (2017).
    (doi: 10.1021/acs.jctc.7b00174)


                         Additional Contributions by
    P. Kraus, H. Kruse, M. H. Lechner, M. C. Schieber, and R. A. Shaw

    -----------------------------------------------------------------------


    Psi4 started on: Friday, 15 February 2019 12:27PM

    Process ID: 43990
    Host:       localhost.localdomain
    PSIDATADIR: /root/psi4conda/share/psi4
    Memory:     500.0 MiB
    Threads:    1
    
  ==> Input File <==

--------------------------------------------------------------------------

molecule{ 
0 1
 C   -2.673244057908   -0.082318217919    0.458617178709
 O   -2.260825663376   -0.024469656389    1.555775498821
 O   -3.226694416170   -0.106759285813   -0.573686474857
 N   -0.413172935569   -0.549742625917   -0.537657243233
 H   -0.422911968933   -0.475046823001   -1.554686471932
 H   -0.187557266998   -1.522050542984   -0.328636980750
 C    0.610045950900    0.323683561222    0.026873245455
 H    0.422963899988    0.395506131470    1.109522119474
 C    1.995900681337   -0.310793673179   -0.098433291142
 O    2.183727573787   -1.481504549728   -0.359921864269
 O    3.006834241051    0.549290797553    0.161582640827
 H    3.840356291640    0.042289582942    0.111710083199
 C    0.516043451064    1.733740248583   -0.567721881691
 H   -0.487450307160    2.135509046043   -0.396987995601
 H    1.245548961244    2.404966505686   -0.108586091986
 H    0.699620989780    1.718073090592   -1.649470476555
}

set basis 6-31+G*
set_num_threads(16)
e, wfn = properties('mp2', return_wfn=True)

d = wfn.Da().to_array()
s = wfn.S().to_array()
c = wfn.Ca().to_array()
occs = c.T.dot(s.dot(d).dot(s).dot(c))

molden(wfn, 'mp2.molden', density_a = psi4.core.Matrix.from_array(occs))
--------------------------------------------------------------------------
  Threads set to 16 by Python driver.
    SCF Algorithm Type (re)set to DF.

*** tstart() called on localhost.localdomain
*** at Fri Feb 15 12:27:06 2019

   => Loading Basis Set <=

    Name: 6-31+G*
    Role: ORBITAL
    Keyword: BASIS
    atoms 1, 7, 9, 13       entry C          line   119 file /root/psi4conda/share/psi4/basis/6-31pgs.gbs 
    atoms 2-3, 10-11        entry O          line   157 file /root/psi4conda/share/psi4/basis/6-31pgs.gbs 
    atoms 4                 entry N          line   138 file /root/psi4conda/share/psi4/basis/6-31pgs.gbs 
    atoms 5-6, 8, 12, 14-16 entry H          line    46 file /root/psi4conda/share/psi4/basis/6-31pgs.gbs 


         ---------------------------------------------------------
                                   SCF
            by Justin Turney, Rob Parrish, Andy Simmonett
                             and Daniel Smith
                              RHF Reference
                       16 Threads,    500 MiB Core
         ---------------------------------------------------------

  ==> Geometry <==

    Molecular point group: c1
    Full point group: C1

    Geometry (in Angstrom), charge = 0, multiplicity = 1:

       Center              X                  Y                   Z               Mass       
    ------------   -----------------  -----------------  -----------------  -----------------
         C           -2.673244057908    -0.082318217919     0.458617178709    12.000000000000
         O           -2.260825663376    -0.024469656389     1.555775498821    15.994914619560
         O           -3.226694416170    -0.106759285813    -0.573686474857    15.994914619560
         N           -0.413172935569    -0.549742625917    -0.537657243233    14.003074004780
         H           -0.422911968933    -0.475046823001    -1.554686471932     1.007825032070
         H           -0.187557266998    -1.522050542984    -0.328636980750     1.007825032070
         C            0.610045950900     0.323683561222     0.026873245455    12.000000000000
         H            0.422963899988     0.395506131470     1.109522119474     1.007825032070
         C            1.995900681337    -0.310793673179    -0.098433291142    12.000000000000
         O            2.183727573787    -1.481504549728    -0.359921864269    15.994914619560
         O            3.006834241051     0.549290797553     0.161582640827    15.994914619560
         H            3.840356291640     0.042289582942     0.111710083199     1.007825032070
         C            0.516043451064     1.733740248583    -0.567721881691    12.000000000000
         H           -0.487450307160     2.135509046043    -0.396987995601     1.007825032070
         H            1.245548961244     2.404966505686    -0.108586091986     1.007825032070
         H            0.699620989780     1.718073090592    -1.649470476555     1.007825032070

  Running in c1 symmetry.

  Rotational constants: A =      0.10623  B =      0.02429  C =      0.02298 [cm^-1]
  Rotational constants: A =   3184.57745  B =    728.10174  C =    689.03720 [MHz]
  Nuclear repulsion =  442.865113902162761

  Charge       = 0
  Multiplicity = 1
  Electrons    = 70
  Nalpha       = 35
  Nbeta        = 35

  ==> Algorithm <==

  SCF Algorithm Type is DF.
  DIIS enabled.
  MOM disabled.
  Fractional occupation disabled.
  Guess Type is SAD.
  Energy threshold   = 1.00e-10
  Density threshold  = 1.00e-10
  Integral threshold = 0.00e+00

  ==> Primary Basis <==

  Basis Set: 6-31+G*
    Blend: 6-31+G*
    Number of shells: 86
    Number of basis function: 185
    Number of Cartesian functions: 185
    Spherical Harmonics?: false
    Max angular momentum: 2

   => Loading Basis Set <=

    Name: (6-31+G* AUX)
    Role: JKFIT
    Keyword: DF_BASIS_SCF
    atoms 1, 7, 9, 13       entry C          line   194 file /root/psi4conda/share/psi4/basis/heavy-aug-cc-pvdz-jkfit.gbs 
    atoms 2-3, 10-11        entry O          line   310 file /root/psi4conda/share/psi4/basis/heavy-aug-cc-pvdz-jkfit.gbs 
    atoms 4                 entry N          line   252 file /root/psi4conda/share/psi4/basis/heavy-aug-cc-pvdz-jkfit.gbs 
    atoms 5-6, 8, 12, 14-16 entry H          line   116 file /root/psi4conda/share/psi4/basis/heavy-aug-cc-pvdz-jkfit.gbs 

  ==> Pre-Iterations <==

   -------------------------------------------------------
    Irrep   Nso     Nmo     Nalpha   Nbeta   Ndocc  Nsocc
   -------------------------------------------------------
     A        185     185       0       0       0       0
   -------------------------------------------------------
    Total     185     185      35      35      35       0
   -------------------------------------------------------

  ==> Integral Setup <==

  ==> DiskDFJK: Density-Fitted J/K Matrices <==

    J tasked:                  Yes
    K tasked:                  Yes
    wK tasked:                  No
    OpenMP threads:             16
    Integrals threads:          16
    Memory (MB):               375
    Algorithm:                Core
    Integral Cache:           NONE
    Schwarz Cutoff:          1E-12
    Fitting Condition:       1E-12

   => Auxiliary Basis Set <=

  Basis Set: (6-31+G* AUX)
    Blend: HEAVY-AUG-CC-PVDZ-JKFIT
    Number of shells: 315
    Number of basis function: 1084
    Number of Cartesian functions: 1084
    Spherical Harmonics?: false
    Max angular momentum: 3

  Minimum eigenvalue in the overlap matrix is 4.6389108251E-05.
  Using Symmetric Orthogonalization.

  SCF Guess: Superposition of Atomic Densities via on-the-fly atomic UHF.

  ==> Iterations <==

                           Total Energy        Delta E     RMS |[F,P]|

   @DF-RHF iter   0:  -512.22616022390525   -5.12226e+02   1.03339e-01 
   @DF-RHF iter   1:  -509.19585186862162    3.03031e+00   1.38345e-02 
   @DF-RHF iter   2:  -509.41246520957776   -2.16613e-01   1.03441e-02 DIIS
   @DF-RHF iter   3:  -509.49659510454455   -8.41299e-02   2.44520e-03 DIIS
   @DF-RHF iter   4:  -509.50631658922430   -9.72148e-03   9.08106e-04 DIIS
   @DF-RHF iter   5:  -509.50775417733098   -1.43759e-03   3.39737e-04 DIIS
   @DF-RHF iter   6:  -509.50796650222412   -2.12325e-04   1.05712e-04 DIIS
   @DF-RHF iter   7:  -509.50799304748966   -2.65453e-05   2.77959e-05 DIIS
   @DF-RHF iter   8:  -509.50799551865560   -2.47117e-06   1.09998e-05 DIIS
   @DF-RHF iter   9:  -509.50799583169271   -3.13037e-07   3.04685e-06 DIIS
   @DF-RHF iter  10:  -509.50799586475500   -3.30623e-08   1.56706e-06 DIIS
   @DF-RHF iter  11:  -509.50799586912160   -4.36660e-09   5.89372e-07 DIIS
   @DF-RHF iter  12:  -509.50799586973818   -6.16581e-10   1.99997e-07 DIIS
   @DF-RHF iter  13:  -509.50799586987290   -1.34719e-10   9.11368e-08 DIIS
   @DF-RHF iter  14:  -509.50799586990837   -3.54703e-11   3.86648e-08 DIIS
   @DF-RHF iter  15:  -509.50799586991303   -4.66116e-12   1.61900e-08 DIIS
   @DF-RHF iter  16:  -509.50799586991548   -2.44427e-12   6.88568e-09 DIIS
   @DF-RHF iter  17:  -509.50799586991576   -2.84217e-13   2.79961e-09 DIIS
   @DF-RHF iter  18:  -509.50799586991519    5.68434e-13   1.21785e-09 DIIS
   @DF-RHF iter  19:  -509.50799586991491    2.84217e-13   3.47663e-10 DIIS
   @DF-RHF iter  20:  -509.50799586991491    0.00000e+00   1.85960e-10 DIIS
   @DF-RHF iter  21:  -509.50799586991468    2.27374e-13   7.28061e-11 DIIS

  ==> Post-Iterations <==

    Orbital Energies [Eh]
    ---------------------

    Doubly Occupied:                                                      

       1A    -20.643599     2A    -20.642869     3A    -20.642557  
       4A    -20.581071     5A    -15.573529     6A    -11.460732  
       7A    -11.407492     8A    -11.298005     9A    -11.245002  
      10A     -1.506989    11A     -1.481760    12A     -1.451350  
      13A     -1.378161    14A     -1.215975    15A     -1.032623  
      16A     -0.920281    17A     -0.816645    18A     -0.778766  
      19A     -0.721614    20A     -0.717939    21A     -0.715216  
      22A     -0.696666    23A     -0.686411    24A     -0.683139  
      25A     -0.641327    26A     -0.618755    27A     -0.610198  
      28A     -0.564874    29A     -0.538598    30A     -0.528484  
      31A     -0.521817    32A     -0.518947    33A     -0.494146  
      34A     -0.470070    35A     -0.425963  

    Virtual:                                                              

      36A      0.064396    37A      0.074354    38A      0.082455  
      39A      0.090390    40A      0.102150    41A      0.113250  
      42A      0.115449    43A      0.127068    44A      0.132886  
      45A      0.143616    46A      0.148834    47A      0.155734  
      48A      0.174332    49A      0.185478    50A      0.190044  
      51A      0.204960    52A      0.218394    53A      0.229606  
      54A      0.236338    55A      0.247756    56A      0.258372  
      57A      0.272377    58A      0.276260    59A      0.301821  
      60A      0.305774    61A      0.316617    62A      0.320950  
      63A      0.336150    64A      0.339919    65A      0.349889  
      66A      0.357438    67A      0.364309    68A      0.368226  
      69A      0.375632    70A      0.389937    71A      0.396562  
      72A      0.401612    73A      0.403385    74A      0.413398  
      75A      0.430599    76A      0.439053    77A      0.439323  
      78A      0.451263    79A      0.472928    80A      0.495803  
      81A      0.505065    82A      0.509978    83A      0.530045  
      84A      0.568289    85A      0.582245    86A      0.602570  
      87A      0.710778    88A      0.859125    89A      0.866281  
      90A      0.877362    91A      0.898636    92A      0.908437  
      93A      0.944822    94A      0.970124    95A      0.986652  
      96A      1.018709    97A      1.026512    98A      1.040304  
      99A      1.086574   100A      1.155588   101A      1.189636  
     102A      1.197211   103A      1.218003   104A      1.240585  
     105A      1.257313   106A      1.274339   107A      1.294414  
     108A      1.304102   109A      1.347726   110A      1.381817  
     111A      1.384105   112A      1.400759   113A      1.414201  
     114A      1.426653   115A      1.434021   116A      1.459586  
     117A      1.494380   118A      1.502700   119A      1.543929  
     120A      1.561681   121A      1.579057   122A      1.589127  
     123A      1.601807   124A      1.622943   125A      1.635992  
     126A      1.659666   127A      1.679618   128A      1.702102  
     129A      1.713871   130A      1.731667   131A      1.740491  
     132A      1.772153   133A      1.781887   134A      1.846119  
     135A      1.864540   136A      1.932805   137A      1.956007  
     138A      2.019009   139A      2.033953   140A      2.050791  
     141A      2.058471   142A      2.071615   143A      2.098714  
     144A      2.143086   145A      2.171163   146A      2.246807  
     147A      2.281201   148A      2.304379   149A      2.338430  
     150A      2.346264   151A      2.367819   152A      2.420077  
     153A      2.427685   154A      2.465921   155A      2.472437  
     156A      2.481655   157A      2.516508   158A      2.548096  
     159A      2.633189   160A      2.638540   161A      2.743856  
     162A      2.766647   163A      2.857656   164A      2.902841  
     165A      2.958363   166A      3.004488   167A      3.030531  
     168A      3.181732   169A      3.214871   170A      3.294436  
     171A      3.337416   172A      3.348590   173A      3.471092  
     174A      3.509423   175A      3.666337   176A      3.705566  
     177A      4.381386   178A      4.542929   179A      4.587079  
     180A      4.648139   181A      4.779082   182A      4.877437  
     183A      5.012643   184A      5.042888   185A      5.289852  

    Final Occupation by Irrep:
              A 
    DOCC [    35 ]

  Energy converged.

  @DF-RHF Final Energy:  -509.50799586991468

   => Energetics <=

    Nuclear Repulsion Energy =            442.8651139021627614
    One-Electron Energy =               -1576.2830781788418335
    Two-Electron Energy =                 623.9099684067642784
    Total Energy =                       -509.5079958699146800


*** tstop() called on localhost.localdomain at Fri Feb 15 12:27:10 2019
Module time:
	user time   =      53.36 seconds =       0.89 minutes
	system time =       3.17 seconds =       0.05 minutes
	total time  =          4 seconds =       0.07 minutes
Total time:
	user time   =      53.36 seconds =       0.89 minutes
	system time =       3.17 seconds =       0.05 minutes
	total time  =          4 seconds =       0.07 minutes
   => Loading Basis Set <=

    Name: (6-31+G* AUX)
    Role: RIFIT
    Keyword: DF_BASIS_MP2
    atoms 1, 7, 9, 13       entry C          line   116 file /root/psi4conda/share/psi4/basis/heavy-aug-cc-pvdz-ri.gbs 
    atoms 2-3, 10-11        entry O          line   208 file /root/psi4conda/share/psi4/basis/heavy-aug-cc-pvdz-ri.gbs 
    atoms 4                 entry N          line   162 file /root/psi4conda/share/psi4/basis/heavy-aug-cc-pvdz-ri.gbs 
    atoms 5-6, 8, 12, 14-16 entry H          line    44 file /root/psi4conda/share/psi4/basis/heavy-aug-cc-pvdz-ri.gbs 


  //>>>>>>>>>>>>>>>>>>>>>>>>>>>>>>>>>>>//
  //               DFMP2               //
  //<<<<<<<<<<<<<<<<<<<<<<<<<<<<<<<<<<<//

	 --------------------------------------------------------
	                          DF-MP2                         
	      2nd-Order Density-Fitted Moller-Plesset Theory     
	              RMP2 Wavefunction,  16 Threads             
	                                                         
	        Rob Parrish, Justin Turney, Andy Simmonett,      
	           Ed Hohenstein, and C. David Sherrill          
	 --------------------------------------------------------

   => Auxiliary Basis Set <=

  Basis Set: (6-31+G* AUX)
    Blend: HEAVY-AUG-CC-PVDZ-RI
    Number of shells: 240
    Number of basis function: 746
    Number of Cartesian functions: 879
    Spherical Harmonics?: true
    Max angular momentum: 3

	 --------------------------------------------------------
	                 NBF =   185, NAUX =   746
	 --------------------------------------------------------
	   CLASS    FOCC     OCC    AOCC    AVIR     VIR    FVIR
	   PAIRS       0      35      35     150     150       0
	 --------------------------------------------------------


         ------------------------------------------------------------
                                     CPHF                           
                                  Rob Parrish                       
         ------------------------------------------------------------

  ==> Geometry <==

    Molecular point group: c1
    Full point group: C1

    Geometry (in Angstrom), charge = 0, multiplicity = 1:

       Center              X                  Y                   Z               Mass       
    ------------   -----------------  -----------------  -----------------  -----------------
         C           -2.673244057908    -0.082318217919     0.458617178709    12.000000000000
         O           -2.260825663376    -0.024469656389     1.555775498821    15.994914619560
         O           -3.226694416170    -0.106759285813    -0.573686474857    15.994914619560
         N           -0.413172935569    -0.549742625917    -0.537657243233    14.003074004780
         H           -0.422911968933    -0.475046823001    -1.554686471932     1.007825032070
         H           -0.187557266998    -1.522050542984    -0.328636980750     1.007825032070
         C            0.610045950900     0.323683561222     0.026873245455    12.000000000000
         H            0.422963899988     0.395506131470     1.109522119474     1.007825032070
         C            1.995900681337    -0.310793673179    -0.098433291142    12.000000000000
         O            2.183727573787    -1.481504549728    -0.359921864269    15.994914619560
         O            3.006834241051     0.549290797553     0.161582640827    15.994914619560
         H            3.840356291640     0.042289582942     0.111710083199     1.007825032070
         C            0.516043451064     1.733740248583    -0.567721881691    12.000000000000
         H           -0.487450307160     2.135509046043    -0.396987995601     1.007825032070
         H            1.245548961244     2.404966505686    -0.108586091986     1.007825032070
         H            0.699620989780     1.718073090592    -1.649470476555     1.007825032070

  Nuclear repulsion =  442.865113902162761
  Reference energy  = -509.507995869914680

  ==> Basis Set <==

  Basis Set: 6-31+G*
    Blend: 6-31+G*
    Number of shells: 86
    Number of basis function: 185
    Number of Cartesian functions: 185
    Spherical Harmonics?: false
    Max angular momentum: 2

  ==> CGRSolver (by Rob Parrish) <==

   Number of roots    =         1
   Preconditioning    =    JACOBI
   Convergence cutoff =     1E-06
   Maximum iterations =       100

  ==> CPHFRHamiltonian (by Rob Parrish) <== 

  ==> DiskDFJK: Density-Fitted J/K Matrices <==

    J tasked:                  Yes
    K tasked:                  Yes
    wK tasked:                  No
    OpenMP threads:             16
    Integrals threads:          16
    Memory (MB):               375
    Algorithm:                Core
    Integral Cache:           NONE
    Schwarz Cutoff:          1E-12
    Fitting Condition:       1E-12

   => Auxiliary Basis Set <=

  Basis Set: (6-31+G* AUX)
    Blend: HEAVY-AUG-CC-PVDZ-JKFIT
    Number of shells: 315
    Number of basis function: 1084
    Number of Cartesian functions: 1084
    Spherical Harmonics?: false
    Max angular momentum: 3

  ==> CPHF Iterations <==

  => Iterations <=

             Iter  Converged  Remaining    Residual
  CGR           1          0          1   1.373E-01
  CGR           2          0          1   3.324E-02
  CGR           3          0          1   1.390E-02
  CGR           4          0          1   4.261E-03
  CGR           5          0          1   1.159E-03
  CGR           6          0          1   4.345E-04
  CGR           7          0          1   1.408E-04
  CGR           8          0          1   5.285E-05
  CGR           9          0          1   2.112E-05
  CGR          10          0          1   1.053E-05
  CGR          11          0          1   4.707E-06
  CGR          12          0          1   1.268E-06
  CGR          13          1          0   4.328E-07

    CGRSolver converged.

	-----------------------------------------------------------
	 ==================> DF-MP2 Energies <==================== 
	-----------------------------------------------------------
	 Reference Energy          =    -509.5079958699146800 [Eh]
	 Singles Energy            =      -0.0000000000000000 [Eh]
	 Same-Spin Energy          =      -0.3895053219687297 [Eh]
	 Opposite-Spin Energy      =      -1.0547136756002726 [Eh]
	 Correlation Energy        =      -1.4442189975690023 [Eh]
	 Total Energy              =    -510.9522148674836899 [Eh]
	-----------------------------------------------------------
	 ================> DF-SCS-MP2 Energies <================== 
	-----------------------------------------------------------
	 SCS Same-Spin Scale       =       0.3333333333333333 [-]
	 SCS Opposite-Spin Scale   =       1.2000000000000000 [-]
	 SCS Same-Spin Energy      =      -0.1298351073229099 [Eh]
	 SCS Opposite-Spin Energy  =      -1.2656564107203272 [Eh]
	 SCS Correlation Energy    =      -1.3954915180432370 [Eh]
	 SCS Total Energy          =    -510.9034873879579095 [Eh]
	-----------------------------------------------------------



Properties will be evaluated at   0.000000,   0.000000,   0.000000 [a0]

Properties computed using the MP2 density matrix

  Nuclear Dipole Moment: [e a0]
     X:     4.7908      Y:     4.4019      Z:    -2.6357

  Electronic Dipole Moment: [e a0]
     X:    -3.9929      Y:    -3.9672      Z:     2.4435

  Dipole Moment: [e a0]
     X:     0.7979      Y:     0.4347      Z:    -0.1921     Total:     0.9287

  Dipole Moment: [D]
     X:     2.0280      Y:     1.1048      Z:    -0.4884     Total:     2.3605

  Quadrupole Moment: [D A]
    XX:   -52.8548     YY:   -55.2493     ZZ:   -54.4612
    XY:     2.1891     XZ:     0.2910     YZ:    -1.2246

  Traceless Quadrupole Moment: [D A]
    XX:     1.3336     YY:    -1.0608     ZZ:    -0.2728
    XY:     2.1891     XZ:     0.2910     YZ:    -1.2246


    Psi4 stopped on: Friday, 15 February 2019 12:27PM
    Psi4 wall time for execution: 0:00:11.08

*** Psi4 exiting successfully. Buy a developer a beer!
