
    -----------------------------------------------------------------------
          Psi4: An Open-Source Ab Initio Electronic Structure Package
                               Psi4 1.2.1 release

                         Git: Rev {HEAD} 406f4de 


    R. M. Parrish, L. A. Burns, D. G. A. Smith, A. C. Simmonett,
    A. E. DePrince III, E. G. Hohenstein, U. Bozkaya, A. Yu. Sokolov,
    R. Di Remigio, R. M. Richard, J. F. Gonthier, A. M. James,
    H. R. McAlexander, A. Kumar, M. Saitow, X. Wang, B. P. Pritchard,
    P. Verma, H. F. Schaefer III, K. Patkowski, R. A. King, E. F. Valeev,
    F. A. Evangelista, J. M. Turney, T. D. Crawford, and C. D. Sherrill,
    J. Chem. Theory Comput. 13(7) pp 3185--3197 (2017).
    (doi: 10.1021/acs.jctc.7b00174)


                         Additional Contributions by
    P. Kraus, H. Kruse, M. H. Lechner, M. C. Schieber, and R. A. Shaw

    -----------------------------------------------------------------------


    Psi4 started on: Monday, 13 May 2019 10:46AM

    Process ID: 19984
    Host:       localhost.localdomain
    PSIDATADIR: /root/psi4conda/share/psi4
    Memory:     500.0 MiB
    Threads:    1
    
  ==> Input File <==

--------------------------------------------------------------------------
molecule{
0 1
    C           -0.219993264371    -1.187271518631     0.109434818000
    O           -1.027167200777    -0.942524939525    -0.749553468223
    H            0.156461448716    -0.511696989311     2.079702362262
    H           -1.557735802534    -0.928735135233     1.759214875898
    H            1.010850663307     2.492411731940    -1.585906267880
    C            1.196871045378     1.553194932012    -1.056620272238
    H            0.918060106051     0.716345306706    -1.705236936311
    H            2.260277788086     1.490112308567    -0.828780344705
    O            0.505121246394     1.502764129763     0.180832573662
    H           -0.437346124407     1.489841204064    -0.007656322856
    C           -0.520550037497    -1.206856721791     1.577547065874
    H           -0.327079450169    -2.207475178361     1.974091164677
    H            0.828343240836    -1.419356915356    -0.165022942350 
}

set{
   basis 6-311++G(d,p)
   freeze_core True
   cubeprop_tasks ['ESP']
}


set_num_threads(32)
e, wfn = energy('m06-2x', return_wfn=True)
cubeprop(wfn)
--------------------------------------------------------------------------
  Threads set to 32 by Python driver.

*** tstart() called on localhost.localdomain
*** at Mon May 13 10:46:24 2019

   => Loading Basis Set <=

    Name: 6-311++G(D,P)
    Role: ORBITAL
    Keyword: BASIS
    atoms 1, 6, 11            entry C          line   119 file /root/psi4conda/share/psi4/basis/6-311ppg_d_p_.gbs 
    atoms 2, 9                entry O          line   161 file /root/psi4conda/share/psi4/basis/6-311ppg_d_p_.gbs 
    atoms 3-5, 7-8, 10, 12-13 entry H          line    42 file /root/psi4conda/share/psi4/basis/6-311ppg_d_p_.gbs 


         ---------------------------------------------------------
                                   SCF
            by Justin Turney, Rob Parrish, Andy Simmonett
                             and Daniel Smith
                              RKS Reference
                       32 Threads,    500 MiB Core
         ---------------------------------------------------------

  ==> Geometry <==

    Molecular point group: c1
    Full point group: C1

    Geometry (in Angstrom), charge = 0, multiplicity = 1:

       Center              X                  Y                   Z               Mass       
    ------------   -----------------  -----------------  -----------------  -----------------
         C           -0.219993264371    -1.187271518631     0.109434818000    12.000000000000
         O           -1.027167200777    -0.942524939525    -0.749553468223    15.994914619560
         H            0.156461448716    -0.511696989311     2.079702362262     1.007825032070
         H           -1.557735802534    -0.928735135233     1.759214875898     1.007825032070
         H            1.010850663307     2.492411731940    -1.585906267880     1.007825032070
         C            1.196871045378     1.553194932012    -1.056620272238    12.000000000000
         H            0.918060106051     0.716345306706    -1.705236936311     1.007825032070
         H            2.260277788086     1.490112308567    -0.828780344705     1.007825032070
         O            0.505121246394     1.502764129763     0.180832573662    15.994914619560
         H           -0.437346124407     1.489841204064    -0.007656322856     1.007825032070
         C           -0.520550037497    -1.206856721791     1.577547065874    12.000000000000
         H           -0.327079450169    -2.207475178361     1.974091164677     1.007825032070
         H            0.828343240836    -1.419356915356    -0.165022942350     1.007825032070

  Running in c1 symmetry.

  Rotational constants: A =      0.25263  B =      0.08298  C =      0.06964 [cm^-1]
  Rotational constants: A =   7573.75788  B =   2487.74054  C =   2087.70135 [MHz]
  Nuclear repulsion =  178.944252487747207

  Charge       = 0
  Multiplicity = 1
  Electrons    = 42
  Nalpha       = 21
  Nbeta        = 21

  ==> Algorithm <==

  SCF Algorithm Type is DF.
  DIIS enabled.
  MOM disabled.
  Fractional occupation disabled.
  Guess Type is SAD.
  Energy threshold   = 1.00e-06
  Density threshold  = 1.00e-06
  Integral threshold = 0.00e+00

  ==> Primary Basis <==

  Basis Set: 6-311++G(D,P)
    Blend: 6-311++G(D,P)
    Number of shells: 90
    Number of basis function: 166
    Number of Cartesian functions: 171
    Spherical Harmonics?: true
    Max angular momentum: 2

  ==> DFT Potential <==

   => Composite Functional: M06-2X <= 

    Hybrid M06-2X Meta-GGA XC Functional

    Y. Zhao and D. G. Truhlar,  Theor. Chem. Acc., 120, 215, 2008


    Deriv               =              1
    GGA                 =           TRUE
    Meta                =           TRUE

    Exchange Hybrid     =           TRUE
    MP2 Hybrid          =          FALSE

   => Exchange Functionals <=

    1.0000   XC_HYB_MGGA_X_M06_2X

   => Exact (HF) Exchange <=

    0.5400               HF 

   => Correlation Functionals <=

    1.0000   XC_MGGA_C_M06_2X

   => Molecular Quadrature <=

    Radial Scheme       =       TREUTLER
    Pruning Scheme      =           FLAT
    Nuclear Scheme      =       TREUTLER

    BS radius alpha     =              1
    Pruning alpha       =              1
    Radial Points       =             75
    Spherical Points    =            302
    Total Points        =         294450
    Total Blocks        =           2240
    Max Points          =            256
    Max Functions       =            166

   => Loading Basis Set <=

    Name: (6-311++G(D,P) AUX)
    Role: JKFIT
    Keyword: DF_BASIS_SCF
    atoms 1, 6, 11            entry C          line   162 file /root/psi4conda/share/psi4/basis/aug-cc-pvtz-jkfit.gbs 
    atoms 2, 9                entry O          line   286 file /root/psi4conda/share/psi4/basis/aug-cc-pvtz-jkfit.gbs 
    atoms 3-5, 7-8, 10, 12-13 entry H          line    70 file /root/psi4conda/share/psi4/basis/aug-cc-pvtz-jkfit.gbs 

  ==> Pre-Iterations <==

   -------------------------------------------------------
    Irrep   Nso     Nmo     Nalpha   Nbeta   Ndocc  Nsocc
   -------------------------------------------------------
     A        166     166       0       0       0       0
   -------------------------------------------------------
    Total     166     166      21      21      21       0
   -------------------------------------------------------

  ==> Integral Setup <==

  DFHelper Memory: AOs need 0.234 [GiB]; user supplied 0.366 [GiB]. Using in-core AOs.

  ==> MemDFJK: Density-Fitted J/K Matrices <==

    J tasked:                   Yes
    K tasked:                   Yes
    wK tasked:                   No
    OpenMP threads:              32
    Memory (MB):                375
    Algorithm:                 Core
    Schwarz Cutoff:           1E-12
    Mask sparsity (%):       3.9628
    Fitting Condition:        1E-12

   => Auxiliary Basis Set <=

  Basis Set: (6-311++G(D,P) AUX)
    Blend: AUG-CC-PVTZ-JKFIT
    Number of shells: 262
    Number of basis function: 888
    Number of Cartesian functions: 1095
    Spherical Harmonics?: true
    Max angular momentum: 4

  Minimum eigenvalue in the overlap matrix is 6.5051555905E-05.
  Using Symmetric Orthogonalization.

  SCF Guess: Superposition of Atomic Densities via on-the-fly atomic UHF.

  ==> Iterations <==

                           Total Energy        Delta E     RMS |[F,P]|

   @DF-RKS iter   0:  -270.33436782420597   -2.70334e+02   7.51776e-02 
   @DF-RKS iter   1:  -269.37479880779341    9.59569e-01   1.20800e-02 
   @DF-RKS iter   2:  -269.30045672465451    7.43421e-02   1.50731e-02 DIIS
   @DF-RKS iter   3:  -269.51241764866450   -2.11961e-01   1.96811e-03 DIIS
   @DF-RKS iter   4:  -269.51625255649543   -3.83491e-03   9.95427e-04 DIIS
   @DF-RKS iter   5:  -269.51725487967082   -1.00232e-03   3.27862e-04 DIIS
   @DF-RKS iter   6:  -269.51733229195003   -7.74123e-05   1.12393e-04 DIIS
   @DF-RKS iter   7:  -269.51734990185849   -1.76099e-05   3.58113e-05 DIIS
   @DF-RKS iter   8:  -269.51735187245959   -1.97060e-06   6.72646e-06 DIIS
   @DF-RKS iter   9:  -269.51735211564409   -2.43185e-07   3.48493e-06 DIIS
   @DF-RKS iter  10:  -269.51735217388341   -5.82393e-08   1.45841e-06 DIIS
   @DF-RKS iter  11:  -269.51735218512886   -1.12454e-08   5.00502e-07 DIIS

  ==> Post-Iterations <==

    Orbital Energies [Eh]
    ---------------------

    Doubly Occupied:                                                      

       1A    -19.627633     2A    -19.626491     3A    -10.636575  
       4A    -10.579145     5A    -10.543319     6A     -1.181707  
       7A     -1.148424     8A     -0.850471     9A     -0.779045  
      10A     -0.668240    11A     -0.590459    12A     -0.563812  
      13A     -0.531599    14A     -0.518140    15A     -0.508514  
      16A     -0.500451    17A     -0.465032    18A     -0.435850  
      19A     -0.413813    20A     -0.358194    21A     -0.334221  

    Virtual:                                                              

      22A     -0.002479    23A      0.010130    24A      0.012434  
      25A      0.016095    26A      0.029786    27A      0.036374  
      28A      0.041751    29A      0.051625    30A      0.065330  
      31A      0.071759    32A      0.083471    33A      0.091661  
      34A      0.102284    35A      0.109680    36A      0.125213  
      37A      0.126941    38A      0.140040    39A      0.141284  
      40A      0.144846    41A      0.152046    42A      0.169950  
      43A      0.203106    44A      0.212547    45A      0.216242  
      46A      0.217632    47A      0.222344    48A      0.246544  
      49A      0.255053    50A      0.259018    51A      0.269352  
      52A      0.288465    53A      0.294956    54A      0.317920  
      55A      0.332498    56A      0.341743    57A      0.350579  
      58A      0.361340    59A      0.368633    60A      0.399591  
      61A      0.436590    62A      0.465292    63A      0.483435  
      64A      0.494034    65A      0.540141    66A      0.570495  
      67A      0.589949    68A      0.603559    69A      0.632569  
      70A      0.676945    71A      0.687967    72A      0.691778  
      73A      0.700840    74A      0.702644    75A      0.721673  
      76A      0.743883    77A      0.759276    78A      0.765451  
      79A      0.903666    80A      0.924374    81A      0.966454  
      82A      1.033460    83A      1.038607    84A      1.094042  
      85A      1.127238    86A      1.151931    87A      1.178832  
      88A      1.222087    89A      1.254406    90A      1.257955  
      91A      1.337293    92A      1.354948    93A      1.453705  
      94A      1.479809    95A      1.493219    96A      1.504169  
      97A      1.513875    98A      1.547849    99A      1.563049  
     100A      1.582157   101A      1.597472   102A      1.608607  
     103A      1.630533   104A      1.642505   105A      1.663524  
     106A      1.733324   107A      1.749610   108A      1.772113  
     109A      1.793087   110A      1.838454   111A      1.868717  
     112A      1.948327   113A      1.968405   114A      2.052174  
     115A      2.082147   116A      2.123866   117A      2.168185  
     118A      2.178516   119A      2.256382   120A      2.273110  
     121A      2.342375   122A      2.461850   123A      2.469706  
     124A      2.494434   125A      2.538727   126A      2.545569  
     127A      2.551588   128A      2.555650   129A      2.565023  
     130A      2.585389   131A      2.605920   132A      2.692101  
     133A      2.718296   134A      2.764169   135A      2.866885  
     136A      2.920815   137A      2.943077   138A      2.980031  
     139A      2.990122   140A      3.048265   141A      3.160675  
     142A      3.196875   143A      3.267387   144A      3.351566  
     145A      3.416138   146A      3.549096   147A      3.555793  
     148A      3.795013   149A      3.836375   150A      3.851957  
     151A      3.888839   152A      3.935327   153A      3.970519  
     154A      4.081248   155A      4.195805   156A      5.159922  
     157A      5.223304   158A      5.265800   159A      5.493583  
     160A      5.738840   161A      5.815840   162A     23.957911  
     163A     23.999852   164A     24.039940   165A     50.009468  
     166A     50.075300  

    Final Occupation by Irrep:
              A 
    DOCC [    21 ]

  Energy converged.

  @DF-RKS Final Energy:  -269.51735218512886

   => Energetics <=

    Nuclear Repulsion Energy =            178.9442524877472067
    One-Electron Energy =                -720.7745551540524502
    Two-Electron Energy =                 289.8267708673752736
    DFT Exchange-Correlation Energy =     -17.5138203861988870
    Empirical Dispersion Energy =           0.0000000000000000
    VV10 Nonlocal Energy =                  0.0000000000000000
    Total Energy =                       -269.5173521851288569



Properties will be evaluated at   0.000000,   0.000000,   0.000000 [a0]

Properties computed using the SCF density matrix

  Nuclear Dipole Moment: [e a0]
     X:     2.6710      Y:     1.0540      Z:     1.4226

  Electronic Dipole Moment: [e a0]
     X:    -2.2714      Y:    -1.1993      Z:    -1.1236

  Dipole Moment: [e a0]
     X:     0.3996      Y:    -0.1453      Z:     0.2990     Total:     0.5198

  Dipole Moment: [D]
     X:     1.0157      Y:    -0.3693      Z:     0.7600     Total:     1.3212


*** tstop() called on localhost.localdomain at Mon May 13 10:46:31 2019
Module time:
	user time   =     170.42 seconds =       2.84 minutes
	system time =       5.40 seconds =       0.09 minutes
	total time  =          7 seconds =       0.12 minutes
Total time:
	user time   =     170.42 seconds =       2.84 minutes
	system time =       5.40 seconds =       0.09 minutes
	total time  =          7 seconds =       0.12 minutes
  ==> One Electron Grid Properties (v2.0) <==

  ==> CubicScalarGrid <==

    Filepath     = .
    Total Points =           516516
    XYZ Blocking =               10
    X Points     =               78
    Y Points     =               86
    Z Points     =               77
    X Spacing    =        2.000E-01
    Y Spacing    =        2.000E-01
    Z Spacing    =        2.000E-01
    X Minimum    =       -7.036E+00
    Y Minimum    =       -8.231E+00
    Z Minimum    =       -7.246E+00
    X Maximum    =        8.364E+00
    Y Maximum    =        8.769E+00
    Z Maximum    =        7.954E+00

  Basis Set: 6-311++G(D,P)
    Blend: 6-311++G(D,P)
    Number of shells: 90
    Number of basis function: 166
    Number of Cartesian functions: 171
    Spherical Harmonics?: true
    Max angular momentum: 2


    Psi4 stopped on: Monday, 13 May 2019 10:46AM
    Psi4 wall time for execution: 0:00:12.78

*** Psi4 exiting successfully. Buy a developer a beer!
