[Molden Format]
[Title]
CLPOs

[Atoms] AU
C    1   6         -4.0882739015        -0.3191810019         0.6234602285 
O    2   8         -4.0364291921        -0.1470345821         2.8979723775 
O    3   8         -5.3532303842        -0.2592016266        -1.2781496851 
N    4   7         -1.0455588365        -0.9005889281        -0.5955316476 
H    5   1         -1.3527878738        -0.7741658905        -2.4956492422 
H    6   1         -0.5435774813        -2.7308040048        -0.2210110735 
C    7   6          0.9520938600         0.8163810668         0.2391951829 
H    8   1          0.6979752078         1.0775753749         2.2842398357 
C    9   6          3.4311068662        -0.5749292893        -0.1609417768 
O   10   8          3.5614996965        -2.8047585440        -0.6934950377 
O   11   8          5.4441579173         0.9209770099         0.1905930614 
H   12   1          6.9646746395        -0.1013705262        -0.0157761867 
C   13   6          0.7706026314         3.3802429882        -1.0984663088 
H   14   1         -1.0717242711         4.2398964616        -0.7230513354 
H   15   1          2.2439214577         4.6503463016        -0.4084974479 
H   16   1          0.9961921409         3.1733980895        -3.1480054145 
[GTO]
  1 0 
s   6 1.0  
     3047.5249000000         0.0018347000 
      457.3695100000         0.0140373000 
      103.9486900000         0.0688426000 
       29.2101550000         0.2321844000 
        9.2866630000         0.4679413000 
        3.1639270000         0.3623120000 
s   3 1.0  
        7.8682724000        -0.1193324000 
        1.8812885000        -0.1608542000 
        0.5442493000         1.1434564000 
p   3 1.0  
        7.8682724000         0.0689991000 
        1.8812885000         0.3164240000 
        0.5442493000         0.7443083000 
s   1 1.0  
        0.1687144000         1.0000000000 
p   1 1.0  
        0.1687144000         1.0000000000 
d   1 1.0  
        0.8000000000         1.0000000000 
s2   1 1.0  
        0.8000000000         1.0000000000 
s   1 1.0  
        0.0438000000         1.0000000000 
p   1 1.0  
        0.0438000000         1.0000000000 

  2 0 
s   6 1.0  
     5484.6717000000         0.0018311000 
      825.2349500000         0.0139501000 
      188.0469600000         0.0684451000 
       52.9645000000         0.2327143000 
       16.8975700000         0.4701930000 
        5.7996353000         0.3585209000 
s   3 1.0  
       15.5396160000        -0.1107775000 
        3.5999336000        -0.1480263000 
        1.0137618000         1.1307670000 
p   3 1.0  
       15.5396160000         0.0708743000 
        3.5999336000         0.3397528000 
        1.0137618000         0.7271586000 
s   1 1.0  
        0.2700058000         1.0000000000 
p   1 1.0  
        0.2700058000         1.0000000000 
d   1 1.0  
        0.8000000000         1.0000000000 
s2   1 1.0  
        0.8000000000         1.0000000000 
s   1 1.0  
        0.0845000000         1.0000000000 
p   1 1.0  
        0.0845000000         1.0000000000 

  3 0 
s   6 1.0  
     5484.6717000000         0.0018311000 
      825.2349500000         0.0139501000 
      188.0469600000         0.0684451000 
       52.9645000000         0.2327143000 
       16.8975700000         0.4701930000 
        5.7996353000         0.3585209000 
s   3 1.0  
       15.5396160000        -0.1107775000 
        3.5999336000        -0.1480263000 
        1.0137618000         1.1307670000 
p   3 1.0  
       15.5396160000         0.0708743000 
        3.5999336000         0.3397528000 
        1.0137618000         0.7271586000 
s   1 1.0  
        0.2700058000         1.0000000000 
p   1 1.0  
        0.2700058000         1.0000000000 
d   1 1.0  
        0.8000000000         1.0000000000 
s2   1 1.0  
        0.8000000000         1.0000000000 
s   1 1.0  
        0.0845000000         1.0000000000 
p   1 1.0  
        0.0845000000         1.0000000000 

  4 0 
s   6 1.0  
     4173.5110000000         0.0018348000 
      627.4579000000         0.0139950000 
      142.9021000000         0.0685870000 
       40.2343300000         0.2322410000 
       12.8202100000         0.4690700000 
        4.3904370000         0.3604550000 
s   3 1.0  
       11.6263580000        -0.1149610000 
        2.7162800000        -0.1691180000 
        0.7722180000         1.1458520000 
p   3 1.0  
       11.6263580000         0.0675800000 
        2.7162800000         0.3239070000 
        0.7722180000         0.7408950000 
s   1 1.0  
        0.2120313000         1.0000000000 
p   1 1.0  
        0.2120313000         1.0000000000 
d   1 1.0  
        0.8000000000         1.0000000000 
s2   1 1.0  
        0.8000000000         1.0000000000 
s   1 1.0  
        0.0639000000         1.0000000000 
p   1 1.0  
        0.0639000000         1.0000000000 

  5 0 
s   3 1.0  
       18.7311370000         0.0334946000 
        2.8253937000         0.2347269500 
        0.6401217000         0.8137573300 
s   1 1.0  
        0.1612778000         1.0000000000 

  6 0 
s   3 1.0  
       18.7311370000         0.0334946000 
        2.8253937000         0.2347269500 
        0.6401217000         0.8137573300 
s   1 1.0  
        0.1612778000         1.0000000000 

  7 0 
s   6 1.0  
     3047.5249000000         0.0018347000 
      457.3695100000         0.0140373000 
      103.9486900000         0.0688426000 
       29.2101550000         0.2321844000 
        9.2866630000         0.4679413000 
        3.1639270000         0.3623120000 
s   3 1.0  
        7.8682724000        -0.1193324000 
        1.8812885000        -0.1608542000 
        0.5442493000         1.1434564000 
p   3 1.0  
        7.8682724000         0.0689991000 
        1.8812885000         0.3164240000 
        0.5442493000         0.7443083000 
s   1 1.0  
        0.1687144000         1.0000000000 
p   1 1.0  
        0.1687144000         1.0000000000 
d   1 1.0  
        0.8000000000         1.0000000000 
s2   1 1.0  
        0.8000000000         1.0000000000 
s   1 1.0  
        0.0438000000         1.0000000000 
p   1 1.0  
        0.0438000000         1.0000000000 

  8 0 
s   3 1.0  
       18.7311370000         0.0334946000 
        2.8253937000         0.2347269500 
        0.6401217000         0.8137573300 
s   1 1.0  
        0.1612778000         1.0000000000 

  9 0 
s   6 1.0  
     3047.5249000000         0.0018347000 
      457.3695100000         0.0140373000 
      103.9486900000         0.0688426000 
       29.2101550000         0.2321844000 
        9.2866630000         0.4679413000 
        3.1639270000         0.3623120000 
s   3 1.0  
        7.8682724000        -0.1193324000 
        1.8812885000        -0.1608542000 
        0.5442493000         1.1434564000 
p   3 1.0  
        7.8682724000         0.0689991000 
        1.8812885000         0.3164240000 
        0.5442493000         0.7443083000 
s   1 1.0  
        0.1687144000         1.0000000000 
p   1 1.0  
        0.1687144000         1.0000000000 
d   1 1.0  
        0.8000000000         1.0000000000 
s2   1 1.0  
        0.8000000000         1.0000000000 
s   1 1.0  
        0.0438000000         1.0000000000 
p   1 1.0  
        0.0438000000         1.0000000000 

 10 0 
s   6 1.0  
     5484.6717000000         0.0018311000 
      825.2349500000         0.0139501000 
      188.0469600000         0.0684451000 
       52.9645000000         0.2327143000 
       16.8975700000         0.4701930000 
        5.7996353000         0.3585209000 
s   3 1.0  
       15.5396160000        -0.1107775000 
        3.5999336000        -0.1480263000 
        1.0137618000         1.1307670000 
p   3 1.0  
       15.5396160000         0.0708743000 
        3.5999336000         0.3397528000 
        1.0137618000         0.7271586000 
s   1 1.0  
        0.2700058000         1.0000000000 
p   1 1.0  
        0.2700058000         1.0000000000 
d   1 1.0  
        0.8000000000         1.0000000000 
s2   1 1.0  
        0.8000000000         1.0000000000 
s   1 1.0  
        0.0845000000         1.0000000000 
p   1 1.0  
        0.0845000000         1.0000000000 

 11 0 
s   6 1.0  
     5484.6717000000         0.0018311000 
      825.2349500000         0.0139501000 
      188.0469600000         0.0684451000 
       52.9645000000         0.2327143000 
       16.8975700000         0.4701930000 
        5.7996353000         0.3585209000 
s   3 1.0  
       15.5396160000        -0.1107775000 
        3.5999336000        -0.1480263000 
        1.0137618000         1.1307670000 
p   3 1.0  
       15.5396160000         0.0708743000 
        3.5999336000         0.3397528000 
        1.0137618000         0.7271586000 
s   1 1.0  
        0.2700058000         1.0000000000 
p   1 1.0  
        0.2700058000         1.0000000000 
d   1 1.0  
        0.8000000000         1.0000000000 
s2   1 1.0  
        0.8000000000         1.0000000000 
s   1 1.0  
        0.0845000000         1.0000000000 
p   1 1.0  
        0.0845000000         1.0000000000 

 12 0 
s   3 1.0  
       18.7311370000         0.0334946000 
        2.8253937000         0.2347269500 
        0.6401217000         0.8137573300 
s   1 1.0  
        0.1612778000         1.0000000000 

 13 0 
s   6 1.0  
     3047.5249000000         0.0018347000 
      457.3695100000         0.0140373000 
      103.9486900000         0.0688426000 
       29.2101550000         0.2321844000 
        9.2866630000         0.4679413000 
        3.1639270000         0.3623120000 
s   3 1.0  
        7.8682724000        -0.1193324000 
        1.8812885000        -0.1608542000 
        0.5442493000         1.1434564000 
p   3 1.0  
        7.8682724000         0.0689991000 
        1.8812885000         0.3164240000 
        0.5442493000         0.7443083000 
s   1 1.0  
        0.1687144000         1.0000000000 
p   1 1.0  
        0.1687144000         1.0000000000 
d   1 1.0  
        0.8000000000         1.0000000000 
s2   1 1.0  
        0.8000000000         1.0000000000 
s   1 1.0  
        0.0438000000         1.0000000000 
p   1 1.0  
        0.0438000000         1.0000000000 

 14 0 
s   3 1.0  
       18.7311370000         0.0334946000 
        2.8253937000         0.2347269500 
        0.6401217000         0.8137573300 
s   1 1.0  
        0.1612778000         1.0000000000 

 15 0 
s   3 1.0  
       18.7311370000         0.0334946000 
        2.8253937000         0.2347269500 
        0.6401217000         0.8137573300 
s   1 1.0  
        0.1612778000         1.0000000000 

 16 0 
s   3 1.0  
       18.7311370000         0.0334946000 
        2.8253937000         0.2347269500 
        0.6401217000         0.8137573300 
s   1 1.0  
        0.1612778000         1.0000000000 

[5D]
[9G]
[MO]
 Sym=     1a
 Ene=  0.00000000000000E+00
 Spin= Beta
 Occup= 0.000386
  1      -0.305228777204
  2       1.032045454827
  3       0.132798169540
  4      -0.037656722044
  5      -0.050214844006
  6       1.704426391999
  7       0.493111129634
  8      -0.006936981221
  9      -0.235957895292
 10      -0.527771486039
 11      -0.317588944602
 12      -0.017233002207
 13       0.118793058729
 14      -0.062692928151
 15      -2.590487655974
 16      -8.476570342979
 17      -0.011544790464
 18      -0.833158075086
 19      -0.286640621523
 20       0.062196759268
 21       0.343814550457
 22       0.006459142045
 23      -0.020931070347
 24      -0.251561331596
 25      -1.183868912579
 26       0.194405840601
 27      -0.046504564844
 28      -0.277593837709
 29       0.249648606522
 30      -0.025337943067
 31       0.041611137465
 32      -0.010970581118
 33      -0.003222031768
 34       0.608477026801
 35       2.262284099285
 36      -1.225080621316
 37       0.126208735456
 38       0.204495605715
 39       0.075452996069
 40       0.341867755370
 41       0.146561041401
 42       0.001204332783
 43       0.182129818722
 44      -1.414290369237
 45       0.299343041087
 46      -0.093362387566
 47       0.128153313405
 48       0.089956600406
 49       0.220728472728
 50      -0.020983820092
 51       0.088589558934
 52      -0.012951599040
 53       0.697124333749
 54       2.432950538182
 55      -0.894606974970
 56       0.382022964229
 57       0.326870958962
 58       0.023458191861
 59       0.067570579456
 60      -0.025061240283
 61       0.010364199519
 62      -0.002815612272
 63      -0.415264823828
 64       0.547191818226
 65      -0.086525910523
 66      -0.108866338583
 67       0.010375050529
 68       0.021493947275
 69      -0.006280218242
 70      -0.024077020329
 71       0.018264168390
 72       0.079648720781
 73      -2.906836212566
 74      -1.735358164379
 75      -1.300019919795
 76       0.392947814495
 77       0.004815876121
 78       0.388644076926
 79       0.085723352817
 80      -0.342490245128
 81       0.006341861321
 82      -0.023149827059
 83      -0.023261503763
 84       0.034497763646
 85       0.013669882760
 86       0.048433481234
 87       0.067568360087
 88      -0.274376557833
 89       0.140158464650
 90      -0.011652647521
 91      -0.006148083771
 92       0.001762171101
 93       0.027289017086
 94      -0.015540696660
 95       0.053705081162
 96       2.884180258351
 97      -5.731654669050
 98      -0.977915789855
 99      -0.553596161966
100       0.029410819489
101      -0.155113737856
102      -0.003530159867
103       0.051982981358
104       0.006990622530
105       0.006360280309
106       0.009005097853
107       0.073402597176
108       0.087481875451
109      -0.149073067994
110      -0.140311248676
111       0.012511354401
112       0.005595773476
113       0.000309281385
114      -0.018622558957
115      -0.005024468150
116      -0.057823616234
117       3.991711799514
118       0.213693367749
119       1.478057184312
120       0.412426961695
121       0.008041771224
122       0.028992434731
123       0.009952488543
124       0.004033010486
125      -0.002713811096
126      -0.219086479454
127      -0.067573950031
128      -0.049449192777
129       0.019444004713
130       0.003461140559
131       0.006593547574
132       0.000660165275
133       0.008043445228
134      -0.003014018272
135       0.050623121182
136       0.449002255760
137       0.088325726256
138       0.029736481104
139      -0.093647973428
140       0.006574127618
141       0.022617484307
142      -0.010323347670
143       0.008284448894
144      -0.001600177604
145      -0.125378526783
146       0.021806244775
147      -0.036439118048
148       0.010635768884
149      -0.001405910329
150      -0.005414142670
151      -0.006835548133
152       0.010813401609
153       0.003170195304
154       0.051270290067
155      -0.175834718214
156      -0.451188453325
157       0.406148837455
158       0.146698696360
159      -0.030201217403
160       0.265490040278
161      -0.005520673629
162      -0.029249197127
163      -0.015139210646
164       0.027391234809
165       0.034973956426
166       0.319106159372
167      -0.001595951676
168      -0.344385483222
169      -0.140717786454
170       0.007935135211
171      -0.008739116025
172      -0.008286970093
173      -0.020478545355
174       0.013024498727
175      -0.009032702613
176       0.197856397325
177      -0.048339141035
178       0.011559929197
179       0.237845741142
180       0.054319888529
181      -0.193983663314
182       0.006868613556
183       0.063352955178
184      -0.019988636197
185      -0.220463015706
 Sym=     1a
 Ene=  1.00000000000000E+00
 Spin= Beta
 Occup= 0.000592
  1       0.356728247074
  2      -1.045510820349
  3       0.144751570000
  4      -0.039441971233
  5      -0.069596706352
  6      -7.961810460365
  7       0.213802961863
  8      -0.030335544734
  9       0.168407085714
 10      -0.681080390208
 11      -0.219887093724
 12      -0.058332515449
 13      -0.269398417329
 14       0.051908098555
 15       2.502485279494
 16      -5.396859425070
 17      -0.366263034509
 18      -0.312550052913
 19      -0.130358575917
 20      -0.058074923330
 21      -0.095549330528
 22       0.037246542998
 23      -0.010322966165
 24      -0.022546862082
 25       1.770429634891
 26      -0.074469637984
 27      -0.080545137867
 28      -1.213533570161
 29       0.203943054402
 30      -0.005122680120
 31       0.031309488860
 32      -0.015173106486
 33       0.003012446790
 34      -0.205808237738
 35       2.634419972564
 36      -0.411097533089
 37      -0.028775691042
 38      -0.570639272203
 39      -0.064784521571
 40      -0.174639518617
 41       0.046563205391
 42      -0.004275284145
 43      -0.026315101030
 44       2.155337917373
 45       0.658005518559
 46      -0.041189225593
 47       1.051475147441
 48       0.059964523914
 49       0.171734640598
 50      -0.013178177869
 51       0.052395327107
 52      -0.003046183509
 53      -0.251349512482
 54       2.237946898789
 55      -0.017942133311
 56       0.121711847610
 57       0.668366973327
 58      -0.059232436861
 59      -0.176391426147
 60       0.013361851046
 61      -0.015671467936
 62       0.011667648206
 63       1.477056182087
 64      -0.578681375271
 65       0.150262642143
 66       0.144501108483
 67      -0.014801128834
 68      -0.035516916960
 69       0.017463835286
 70       0.022232338800
 71      -0.010606395750
 72      -0.269149939737
 73       0.495368809923
 74      -1.414229757800
 75      -0.170078840150
 76       0.088666961540
 77      -0.017450651749
 78      -0.598552557489
 79      -0.022500822731
 80      -0.250758115222
 81      -0.000408233571
 82      -0.081512913189
 83       0.030045810449
 84      -0.012446325352
 85       0.031477509806
 86       0.022839577472
 87       0.101067899572
 88       0.305282654163
 89      -0.167179063033
 90      -0.001255464757
 91       0.003945006846
 92      -0.007328738188
 93      -0.021588067168
 94      -0.004677884945
 95       0.020878528260
 96       1.416390149262
 97      -2.349566246248
 98      -0.445244026699
 99      -0.028924084373
100       0.071225974318
101      -0.261578379019
102      -0.009968938404
103      -0.010876388365
104       0.018331785642
105       0.007789038766
106       0.008822865817
107       0.099858848359
108      -0.315586199437
109      -0.258914884250
110      -0.015441679748
111       0.005247594479
112      -0.010589512380
113       0.005238431087
114      -0.001231321763
115      -0.008850352782
116      -0.057090962747
117       1.664518337308
118       0.016267635433
119       0.507652947140
120       0.082562147989
121       0.003172935264
122      -0.000273943450
123       0.007878682059
124       0.001191632176
125       0.004227003224
126      -0.159502544455
127       0.011633488981
128      -0.023305767034
129      -0.017154610062
130      -0.015310767817
131       0.004783748257
132       0.000990797415
133       0.004475367309
134       0.005963472598
135       0.020333088775
136       0.198735184184
137      -0.061532934610
138       0.014625049511
139      -0.047074507792
140      -0.000829533206
141      -0.002711896739
142      -0.007432634141
143       0.007649407422
144       0.003246825516
145       0.106922416443
146      -0.036656657182
147      -0.088709835985
148      -0.029707492796
149      -0.002006974365
150       0.002596262917
151       0.002991466141
152      -0.001493672235
153       0.009778966761
154       0.012615564567
155       0.118703636697
156      -0.214304595530
157       0.134335914973
158       0.041150451039
159      -0.023127737457
160       0.132405765783
161       0.017235622484
162       0.088129040391
163      -0.013588769692
164       0.028396345313
165      -0.003261147177
166      -0.599553845845
167       0.127708696902
168       0.086580641432
169      -0.089461858288
170       0.009209476761
171      -0.003212965573
172       0.007624817118
173      -0.003151208044
174      -0.003761171223
175       0.019538467892
176       0.088486825433
177      -0.026052624564
178       0.014138990738
179       0.104275050230
180       0.017409019301
181       0.073988043368
182       0.015972902122
183       0.001293909550
184       0.028233031154
185      -0.025341866745
 Sym=     1a
 Ene=  2.00000000000000E+00
 Spin= Beta
 Occup= 0.004314
  1      -0.033867830512
  2       2.303051063275
  3       0.435376108964
  4      -0.250718409293
  5      -0.155307899574
  6      -3.324937529556
  7      -1.635858689789
  8       0.581674092379
  9       0.669932059848
 10       0.041366505137
 11       0.072688898373
 12      -0.078635852774
 13       0.210067709664
 14       0.185494978901
 15      -0.861720994697
 16      -0.470664991143
 17      -0.331490753871
 18      -0.080524051665
 19       0.075810034675
 20      -0.008747390777
 21       0.096588051971
 22       0.079454928150
 23      -0.030325348420
 24      -0.049261338816
 25       0.194577297471
 26       0.220641965285
 27      -0.066281321786
 28      -0.135834053245
 29      -0.057881516736
 30      -0.004417291266
 31      -0.032648125543
 32      -0.025529941953
 33      -0.008363425093
 34      -0.010026732891
 35       0.173199772744
 36       0.123518268284
 37      -0.023311231638
 38      -0.094558219670
 39      -0.013149300487
 40       0.079177186451
 41       0.089975438697
 42      -0.030910753787
 43      -0.035321931764
 44       0.347388925113
 45       0.268542705461
 46      -0.067213721344
 47      -0.012662056091
 48      -0.086633556856
 49      -0.038217371360
 50       0.017523692198
 51      -0.028487305251
 52       0.005604427683
 53      -0.049427201627
 54       0.174714847728
 55       0.163472904015
 56       0.011591164579
 57       0.003116713457
 58      -0.059748905982
 59      -0.007385990514
 60      -0.127820364713
 61       0.000377168331
 62       0.046201345853
 63       1.154864269135
 64      -0.917245553044
 65      -0.030567933459
 66       0.292294769214
 67      -0.009721761251
 68      -0.025953380694
 69      -0.002154643606
 70       0.029302614137
 71      -0.010815500603
 72      -0.133063276994
 73       0.066817895981
 74      -0.347123587272
 75      -0.152365849456
 76       0.075580438042
 77      -0.013907739567
 78      -0.123633233276
 79      -0.032931163067
 80      -0.087934113150
 81      -0.017102126980
 82      -0.078607653268
 83       0.015956330698
 84      -0.027810541122
 85       0.000913295159
 86       0.362744523274
 87      -0.250797713272
 88       0.093894689466
 89      -0.175178637473
 90       0.000136968894
 91       0.004981913187
 92       0.002810576512
 93      -0.007165324421
 94       0.005183859908
 95      -0.017712635832
 96       0.442872624526
 97      -0.543888133051
 98      -0.100732602189
 99      -0.108404720899
100       0.001500196256
101      -0.092023620282
102      -0.005723484660
103      -0.049836084394
104       0.004635113207
105       0.007196883797
106       0.007207660928
107       0.151669699329
108      -0.185084581086
109      -0.055817254441
110       0.008005713627
111      -0.001060629236
112      -0.003551619782
113       0.003251590350
114       0.002168489434
115      -0.003463449841
116       0.007271014368
117       0.375007712237
118       0.015587750069
119       0.134675570350
120       0.058286391084
121      -0.000737517292
122      -0.009855726547
123       0.006038001546
124       0.000395771165
125       0.002293082675
126      -0.023112477356
127      -0.000828550397
128       0.003255984555
129      -0.015967674712
130      -0.007768259967
131       0.002553257613
132       0.000211325034
133       0.002389055582
134       0.001535284481
135      -0.001064115755
136       0.030640862885
137       0.001030833635
138       0.002294177576
139      -0.020001538711
140      -0.002379126591
141      -0.004580834977
142      -0.002201456546
143       0.001648526942
144       0.001434237818
145       0.071597245019
146      -0.029868563984
147      -0.023747821809
148      -0.004653635204
149      -0.000052073528
150       0.000174138136
151       0.001574112716
152      -0.000435420958
153       0.003004487300
154      -0.005508192045
155      -0.017646442028
156      -0.048452021976
157       0.034181654740
158       0.015137845691
159       0.002666810003
160       0.050949090706
161       0.005997162846
162       0.012777677398
163       0.017771874694
164       0.031568323372
165      -0.010227788271
166      -0.292075617039
167       0.017183028464
168       0.049763260880
169      -0.038892576341
170       0.002642642589
171       0.000185305500
172       0.000980611132
173       0.001052472270
174      -0.003301215369
175      -0.000895606883
176       0.022156733216
177      -0.008595900043
178      -0.016874420204
179       0.032871182732
180       0.004614891874
181       0.016101796257
182       0.012837113477
183       0.028432714556
184       0.009844074161
185      -0.017927781603
 Sym=     1a
 Ene=  3.00000000000000E+00
 Spin= Beta
 Occup= 1.997911
  1      -0.053397280490
  2       0.275972803074
  3      -0.206709503588
  4       0.012815956957
  5      -0.235764703173
  6       0.095300617053
  7      -0.001322720311
  8       0.009273423344
  9       0.098018946751
 10       0.020566918279
 11       0.057174716744
 12      -0.003382368401
 13       0.005713046569
 14       0.000809023889
 15      -0.009947497238
 16      -0.003447750583
 17       0.007624973456
 18      -0.001368029795
 19      -0.003818619438
 20       0.011266819853
 21      -0.016355954992
 22       0.009608935411
 23       0.001101168208
 24       0.032917080643
 25      -0.127896983884
 26       0.000258625688
 27       0.003311240974
 28       0.054242790227
 29      -0.002666600053
 30       0.010131877878
 31      -0.001228767326
 32       0.000476256283
 33       0.000854380648
 34       0.018934529369
 35      -0.021544374856
 36      -0.009236988925
 37       0.001167767221
 38       0.001876537002
 39      -0.054549715437
 40       0.282573035182
 41       0.206972262665
 42      -0.011706215453
 43       0.313852762948
 44       0.225509537468
 45       0.094832452485
 46      -0.007217520916
 47       0.141124867521
 48       0.009038481273
 49       0.030014070644
 50      -0.002076794524
 51       0.004174355035
 52      -0.000912243233
 53      -0.005752570503
 54      -0.055080510870
 55      -0.009736995481
 56       0.000399113533
 57       0.016225643712
 58       0.001894182306
 59      -0.016890577784
 60       0.046032171172
 61      -0.008442217606
 62       0.000437636382
 63       0.026091767550
 64      -0.034659253293
 65       0.013892774811
 66      -0.047754485509
 67       0.000125016492
 68      -0.000342622005
 69      -0.000094060320
 70       0.005786841773
 71      -0.002696848506
 72      -0.008610988038
 73       0.011994040399
 74      -0.051361360926
 75       0.012398552812
 76      -0.010271629779
 77      -0.026789827198
 78      -0.026959767635
 79       0.004689404287
 80      -0.003763665220
 81       0.000071258600
 82       0.003845246026
 83      -0.006771961317
 84       0.003222074069
 85       0.002477331962
 86       0.019683207554
 87       0.043019411703
 88      -0.046052239174
 89       0.009910219210
 90      -0.000942062957
 91      -0.000549463908
 92       0.001235632745
 93      -0.000154077644
 94       0.000336060415
 95       0.002439563293
 96       0.013585166391
 97      -0.015806630734
 98      -0.009264622054
 99      -0.006497611921
100      -0.002465902534
101      -0.002314590440
102      -0.000534117544
103      -0.000248812659
104       0.005587524130
105       0.000891218087
106       0.000269512188
107      -0.030060052152
108       0.003279769885
109      -0.029887040563
110      -0.012526205025
111       0.000299372976
112       0.000509696462
113      -0.000202069416
114      -0.000586051945
115      -0.000436437548
116      -0.006543450332
117       0.008706757263
118       0.004647453406
119       0.007123517083
120       0.002766553746
121       0.000372755491
122      -0.002497592326
123       0.001785458568
124      -0.000357631026
125      -0.000175196135
126      -0.009624738619
127      -0.003113603569
128      -0.002122883663
129       0.001272578767
130      -0.000674790688
131       0.000030381998
132       0.000588461900
133       0.000255207257
134      -0.000327612051
135       0.000913756217
136       0.011469161200
137      -0.005590361453
138       0.000511048758
139       0.000763365556
140      -0.000524852034
141       0.000284117073
142      -0.000545263910
143      -0.000152323638
144      -0.000533799999
145       0.014083855019
146      -0.006364705584
147      -0.001354007761
148       0.000903623931
149      -0.000064718591
150      -0.000096059893
151      -0.000362910459
152       0.000564263061
153       0.000543072219
154      -0.001408146840
155      -0.001489807477
156      -0.003763211702
157       0.002365505375
158       0.000743547369
159       0.000094087176
160       0.003781900835
161      -0.000250458583
162       0.001166677735
163      -0.002719063393
164      -0.002670880662
165       0.000104435088
166       0.029356548689
167       0.003921238521
168      -0.002239520107
169       0.012939323764
170       0.000163871950
171      -0.000118487620
172      -0.000517785708
173      -0.000126071310
174       0.000521278657
175       0.000801443460
176       0.003418964477
177      -0.001291430630
178       0.000939297306
179       0.001288495604
180      -0.001137720682
181      -0.009769445678
182      -0.002068486384
183      -0.006737202263
184       0.001523708623
185      -0.004109102566
 Sym=     1a
 Ene=  4.00000000000000E+00
 Spin= Beta
 Occup= 0.073153
  1       0.088449549777
  2      -0.646947224180
  3       0.515421037531
  4      -0.025163753517
  5       0.682375429175
  6      -0.294743515621
  7       0.014324782802
  8      -0.024611154531
  9      -0.266561776682
 10      -0.037150873090
 11      -0.091230104119
 12       0.005467954952
 13      -0.003927538336
 14      -0.002942773796
 15      -0.150566591232
 16       0.139924162554