[Molden Format]
[Title]
 created by molden2molden from mp2.molden

[Atoms] AU
C    1   6         -4.0882739015        -0.3191810019         0.6234602285 
O    2   8         -4.0364291921        -0.1470345821         2.8979723775 
O    3   8         -5.3532303842        -0.2592016266        -1.2781496851 
N    4   7         -1.0455588365        -0.9005889281        -0.5955316476 
H    5   1         -1.3527878738        -0.7741658905        -2.4956492422 
H    6   1         -0.5435774813        -2.7308040048        -0.2210110735 
C    7   6          0.9520938600         0.8163810668         0.2391951829 
H    8   1          0.6979752078         1.0775753749         2.2842398357 
C    9   6          3.4311068662        -0.5749292893        -0.1609417768 
O   10   8          3.5614996965        -2.8047585440        -0.6934950377 
O   11   8          5.4441579173         0.9209770099         0.1905930614 
H   12   1          6.9646746395        -0.1013705262        -0.0157761867 
C   13   6          0.7706026314         3.3802429882        -1.0984663088 
H   14   1         -1.0717242711         4.2398964616        -0.7230513354 
H   15   1          2.2439214577         4.6503463016        -0.4084974479 
H   16   1          0.9961921409         3.1733980895        -3.1480054145 
[GTO]
  1 0 
s   6 1.0  
     3047.5249000000         0.0018347000 
      457.3695100000         0.0140373000 
      103.9486900000         0.0688426000 
       29.2101550000         0.2321844000 
        9.2866630000         0.4679413000 
        3.1639270000         0.3623120000 
s   3 1.0  
        7.8682724000        -0.1193324000 
        1.8812885000        -0.1608542000 
        0.5442493000         1.1434564000 
p   3 1.0  
        7.8682724000         0.0689991000 
        1.8812885000         0.3164240000 
        0.5442493000         0.7443083000 
s   1 1.0  
        0.1687144000         1.0000000000 
p   1 1.0  
        0.1687144000         1.0000000000 
d   1 1.0  
        0.8000000000         1.0000000000 
s2   1 1.0  
        0.8000000000         1.0000000000 
s   1 1.0  
        0.0438000000         1.0000000000 
p   1 1.0  
        0.0438000000         1.0000000000 

  2 0 
s   6 1.0  
     5484.6717000000         0.0018311000 
      825.2349500000         0.0139501000 
      188.0469600000         0.0684451000 
       52.9645000000         0.2327143000 
       16.8975700000         0.4701930000 
        5.7996353000         0.3585209000 
s   3 1.0  
       15.5396160000        -0.1107775000 
        3.5999336000        -0.1480263000 
        1.0137618000         1.1307670000 
p   3 1.0  
       15.5396160000         0.0708743000 
        3.5999336000         0.3397528000 
        1.0137618000         0.7271586000 
s   1 1.0  
        0.2700058000         1.0000000000 
p   1 1.0  
        0.2700058000         1.0000000000 
d   1 1.0  
        0.8000000000         1.0000000000 
s2   1 1.0  
        0.8000000000         1.0000000000 
s   1 1.0  
        0.0845000000         1.0000000000 
p   1 1.0  
        0.0845000000         1.0000000000 

  3 0 
s   6 1.0  
     5484.6717000000         0.0018311000 
      825.2349500000         0.0139501000 
      188.0469600000         0.0684451000 
       52.9645000000         0.2327143000 
       16.8975700000         0.4701930000 
        5.7996353000         0.3585209000 
s   3 1.0  
       15.5396160000        -0.1107775000 
        3.5999336000        -0.1480263000 
        1.0137618000         1.1307670000 
p   3 1.0  
       15.5396160000         0.0708743000 
        3.5999336000         0.3397528000 
        1.0137618000         0.7271586000 
s   1 1.0  
        0.2700058000         1.0000000000 
p   1 1.0  
        0.2700058000         1.0000000000 
d   1 1.0  
        0.8000000000         1.0000000000 
s2   1 1.0  
        0.8000000000         1.0000000000 
s   1 1.0  
        0.0845000000         1.0000000000 
p   1 1.0  
        0.0845000000         1.0000000000 

  4 0 
s   6 1.0  
     4173.5110000000         0.0018348000 
      627.4579000000         0.0139950000 
      142.9021000000         0.0685870000 
       40.2343300000         0.2322410000 
       12.8202100000         0.4690700000 
        4.3904370000         0.3604550000 
s   3 1.0  
       11.6263580000        -0.1149610000 
        2.7162800000        -0.1691180000 
        0.7722180000         1.1458520000 
p   3 1.0  
       11.6263580000         0.0675800000 
        2.7162800000         0.3239070000 
        0.7722180000         0.7408950000 
s   1 1.0  
        0.2120313000         1.0000000000 
p   1 1.0  
        0.2120313000         1.0000000000 
d   1 1.0  
        0.8000000000         1.0000000000 
s2   1 1.0  
        0.8000000000         1.0000000000 
s   1 1.0  
        0.0639000000         1.0000000000 
p   1 1.0  
        0.0639000000         1.0000000000 

  5 0 
s   3 1.0  
       18.7311370000         0.0334946000 
        2.8253937000         0.2347269500 
        0.6401217000         0.8137573300 
s   1 1.0  
        0.1612778000         1.0000000000 

  6 0 
s   3 1.0  
       18.7311370000         0.0334946000 
        2.8253937000         0.2347269500 
        0.6401217000         0.8137573300 
s   1 1.0  
        0.1612778000         1.0000000000 

  7 0 
s   6 1.0  
     3047.5249000000         0.0018347000 
      457.3695100000         0.0140373000 
      103.9486900000         0.0688426000 
       29.2101550000         0.2321844000 
        9.2866630000         0.4679413000 
        3.1639270000         0.3623120000 
s   3 1.0  
        7.8682724000        -0.1193324000 
        1.8812885000        -0.1608542000 
        0.5442493000         1.1434564000 
p   3 1.0  
        7.8682724000         0.0689991000 
        1.8812885000         0.3164240000 
        0.5442493000         0.7443083000 
s   1 1.0  
        0.1687144000         1.0000000000 
p   1 1.0  
        0.1687144000         1.0000000000 
d   1 1.0  
        0.8000000000         1.0000000000 
s2   1 1.0  
        0.8000000000         1.0000000000 
s   1 1.0  
        0.0438000000         1.0000000000 
p   1 1.0  
        0.0438000000         1.0000000000 

  8 0 
s   3 1.0  
       18.7311370000         0.0334946000 
        2.8253937000         0.2347269500 
        0.6401217000         0.8137573300 
s   1 1.0  
        0.1612778000         1.0000000000 

  9 0 
s   6 1.0  
     3047.5249000000         0.0018347000 
      457.3695100000         0.0140373000 
      103.9486900000         0.0688426000 
       29.2101550000         0.2321844000 
        9.2866630000         0.4679413000 
        3.1639270000         0.3623120000 
s   3 1.0  
        7.8682724000        -0.1193324000 
        1.8812885000        -0.1608542000 
        0.5442493000         1.1434564000 
p   3 1.0  
        7.8682724000         0.0689991000 
        1.8812885000         0.3164240000 
        0.5442493000         0.7443083000 
s   1 1.0  
        0.1687144000         1.0000000000 
p   1 1.0  
        0.1687144000         1.0000000000 
d   1 1.0  
        0.8000000000         1.0000000000 
s2   1 1.0  
        0.8000000000         1.0000000000 
s   1 1.0  
        0.0438000000         1.0000000000 
p   1 1.0  
        0.0438000000         1.0000000000 

 10 0 
s   6 1.0  
     5484.6717000000         0.0018311000 
      825.2349500000         0.0139501000 
      188.0469600000         0.0684451000 
       52.9645000000         0.2327143000 
       16.8975700000         0.4701930000 
        5.7996353000         0.3585209000 
s   3 1.0  
       15.5396160000        -0.1107775000 
        3.5999336000        -0.1480263000 
        1.0137618000         1.1307670000 
p   3 1.0  
       15.5396160000         0.0708743000 
        3.5999336000         0.3397528000 
        1.0137618000         0.7271586000 
s   1 1.0  
        0.2700058000         1.0000000000 
p   1 1.0  
        0.2700058000         1.0000000000 
d   1 1.0  
        0.8000000000         1.0000000000 
s2   1 1.0  
        0.8000000000         1.0000000000 
s   1 1.0  
        0.0845000000         1.0000000000 
p   1 1.0  
        0.0845000000         1.0000000000 

 11 0 
s   6 1.0  
     5484.6717000000         0.0018311000 
      825.2349500000         0.0139501000 
      188.0469600000         0.0684451000 
       52.9645000000         0.2327143000 
       16.8975700000         0.4701930000 
        5.7996353000         0.3585209000 
s   3 1.0  
       15.5396160000        -0.1107775000 
        3.5999336000        -0.1480263000 
        1.0137618000         1.1307670000 
p   3 1.0  
       15.5396160000         0.0708743000 
        3.5999336000         0.3397528000 
        1.0137618000         0.7271586000 
s   1 1.0  
        0.2700058000         1.0000000000 
p   1 1.0  
        0.2700058000         1.0000000000 
d   1 1.0  
        0.8000000000         1.0000000000 
s2   1 1.0  
        0.8000000000         1.0000000000 
s   1 1.0  
        0.0845000000         1.0000000000 
p   1 1.0  
        0.0845000000         1.0000000000 

 12 0 
s   3 1.0  
       18.7311370000         0.0334946000 
        2.8253937000         0.2347269500 
        0.6401217000         0.8137573300 
s   1 1.0  
        0.1612778000         1.0000000000 

 13 0 
s   6 1.0  
     3047.5249000000         0.0018347000 
      457.3695100000         0.0140373000 
      103.9486900000         0.0688426000 
       29.2101550000         0.2321844000 
        9.2866630000         0.4679413000 
        3.1639270000         0.3623120000 
s   3 1.0  
        7.8682724000        -0.1193324000 
        1.8812885000        -0.1608542000 
        0.5442493000         1.1434564000 
p   3 1.0  
        7.8682724000         0.0689991000 
        1.8812885000         0.3164240000 
        0.5442493000         0.7443083000 
s   1 1.0  
        0.1687144000         1.0000000000 
p   1 1.0  
        0.1687144000         1.0000000000 
d   1 1.0  
        0.8000000000         1.0000000000 
s2   1 1.0  
        0.8000000000         1.0000000000 
s   1 1.0  
        0.0438000000         1.0000000000 
p   1 1.0  
        0.0438000000         1.0000000000 

 14 0 
s   3 1.0  
       18.7311370000         0.0334946000 
        2.8253937000         0.2347269500 
        0.6401217000         0.8137573300 
s   1 1.0  
        0.1612778000         1.0000000000 

 15 0 
s   3 1.0  
       18.7311370000         0.0334946000 
        2.8253937000         0.2347269500 
        0.6401217000         0.8137573300 
s   1 1.0  
        0.1612778000         1.0000000000 

 16 0 
s   3 1.0  
       18.7311370000         0.0334946000 
        2.8253937000         0.2347269500 
        0.6401217000         0.8137573300 
s   1 1.0  
        0.1612778000         1.0000000000 

[5D]
[9G]
[MO]
 Sym=     1a
 Ene= -2.65789100000000E-04
 Spin= Alpha
 Occup=-0.000500
  1       0.012107239259
  2       0.059768939215
  3      -0.027152859585
  4       0.013933722423
  5       0.009041445676
  6       0.161213650937
  7      -0.405937290966
  8       0.119394868068
  9       0.446044081228
 10      -0.021356496270
 11      -0.069115056522
 12      -0.007630196644
 13       0.076731985388
 14      -0.014660751635
 15       0.080905575317
 16       0.103761698100
 17      -0.714976443031
 18       0.333259704302
 19       0.411790686561
 20       0.018177858301
 21       0.197005898835
 22      -0.173741534369
 23       0.020643053293
 24       0.049716931835
 25      -0.728327230019
 26       0.549848396355
 27      -0.059668828156
 28       0.048361424494
 29       0.013019405621
 30      -0.165420237407
 31       0.026127887075
 32      -0.010755331556
 33       0.001675645412
 34       0.094708694524
 35      -0.831765654768
 36      -0.123457731912
 37       0.129087087933
 38       0.444282202881
 39       0.016167548553
 40       0.198308777455
 41      -0.179565357719
 42       0.036919576017
 43       0.057771756771
 44      -0.544722749824
 45       0.559746817772
 46      -0.109367671712
 47      -0.281843707494
 48      -0.072657009258
 49       0.096216817792
 50      -0.030594413541
 51       0.050046771710
 52      -0.017576374289
 53       0.093352617943
 54      -0.046295876699
 55      -0.222433477438
 56      -0.006099546087
 57       0.046843369329
 58      -0.013095932102
 59      -0.118618338521
 60      -0.140275225781
 61       0.092107428387
 62       0.126613877444
 63       0.477219095137
 64       0.522079320294
 65      -0.356768722562
 66      -0.400974010737
 67      -0.005520221908
 68      -0.025500462874
 69       0.001130793534
 70      -0.005925361596
 71       0.011154755276
 72      -0.010032308337
 73       0.643464195369
 74      -1.791598457449
 75       0.245644126548
 76       1.437419550685
 77      -0.075424880431
 78       0.343401373768
 79      -0.012818619292
 80      -0.213639397556
 81      -0.002419844294
 82      -0.001022102058
 83       0.070083992562
 84      -0.043457367143
 85      -0.022083577929
 86       0.191842937722
 87      -0.159303251583
 88       0.012439757628
 89       0.223597568095
 90       0.009481744428
 91      -0.038987077340
 92      -0.048454641944
 93      -0.009733830999
 94      -0.013364570958
 95      -0.008183469894
 96       6.989542476267
 97       2.990495104470
 98      -0.443524834188
 99      -1.742547298695
100      -0.034717731103
101      -0.110160343464
102      -0.002092914703
103       0.062682015856
104      -0.044999544105
105       0.014164923562
106       0.001803201935
107       0.127600084350
108       0.758421905282
109       0.446387576112
110       0.087326853930
111       0.030716769073
112       0.033477505046
113      -0.072258045525
114       0.043802474254
115      -0.040642399178
116      -0.022159506722
117      -4.117708190296
118       1.188175715002
119      -0.417921140905
120       0.024160034408
121      -0.001582301997
122      -0.077907188533
123       0.156666563719
124       0.029808061602
125       0.034085096393
126       0.355755222444
127      -0.640362593480
128       0.055013603764
129      -0.046072039232
130       0.000242662762
131       0.007831037544
132      -0.018295630211
133      -0.013085443563
134      -0.106191473343
135       0.028200603995
136       0.401208170812
137       0.054308535606
138       0.126560928994
139      -0.058531268913
140       0.018764752907
141       0.211547358648
142       0.074928420522
143       0.004911245639
144       0.009362853794
145      -0.843361603293
146      -0.085692263467
147       0.122640679385
148       0.008160824212
149      -0.017140026028
150       0.017158403869
151      -0.001142721831
152       0.012488406530
153       0.022553484226
154       0.094820141916
155      -0.981123450369
156       0.396410689735
157       0.198390834120
158       0.040713070504
159       0.021610131037
160       0.023881494617
161      -0.001004054790
162      -0.043502768817
163      -0.000283443480
164       0.042453243130
165       0.017160866081
166       0.086252508977
167       0.004551874648
168      -0.153870702636
169      -0.070828354774
170      -0.000135381308
171      -0.012011570030
172       0.062240365083
173      -0.042370874404
174      -0.023542685656
175       0.009856848272
176      -2.151800826307
177      -0.726301946911
178       0.727113655848
179       0.051820229179
180       0.011108508514
181      -0.046143293503
182       0.040951357203
183      -0.104736919356
184      -0.045705760517
185       0.132501752850
 Sym=     1a
 Ene= -1.58647600000000E-04
 Spin= Alpha
 Occup=-0.000300
  1      -0.009745911751
  2      -0.044401066778
  3       0.050288915782
  4       0.012473708088
  5      -0.016085081191
  6      -0.172250233424
  7       0.110803873331
  8      -0.058082136891
  9      -0.520120267833
 10       0.014869977991
 11       0.044150434745
 12      -0.024084850931
 13      -0.054865712520
 14       0.049421251279
 15      -0.042498956151
 16       1.289953676951
 17       0.935980301111
 18       0.144134009150
 19      -0.242557801921
 20      -0.027807490464
 21      -0.238677645359
 22       0.090174832381
 23      -0.008183887702
 24      -0.034411683656
 25       0.930859727641
 26      -0.270198924692
 27       0.020761238719
 28      -0.103385074156
 29      -0.009356696097
 30       0.084680726573
 31      -0.006205653647
 32       0.000498782340
 33       0.012593350986
 34      -0.172592998534
 35       0.538166258250
 36       0.180667240906
 37      -0.025415156351
 38      -0.273330235416
 39      -0.016403751691
 40      -0.153368358658
 41       0.099243327451
 42      -0.009823111545
 43      -0.034785944262
 44       0.327071711240
 45      -0.323308302288
 46       0.055256564997
 47       0.147401464191
 48       0.046759436865
 49      -0.057341438060
 50       0.002256178143
 51      -0.012656212634
 52       0.008223046380
 53      -0.118102554995
 54       0.130169783321
 55       0.252704500153
 56      -0.102286224710
 57      -0.025271315900
 58      -0.010957794951
 59      -0.106719404894
 60       0.040121497335
 61       0.002918762943
 62      -0.071825709590
 63       0.282873965047
 64      -0.063896490542
 65      -0.119474707482
 66       0.268233709487
 67      -0.017920834084
 68       0.003267514808
 69       0.001537181303
 70       0.013195149750
 71      -0.018061516711
 72      -0.041813191110
 73      -1.431946691549
 74       1.157678178641
 75      -0.267446275917
 76      -0.574684659535
 77       0.049598373615
 78      -0.059890872481
 79       0.002505863847
 80      -0.075541597200
 81      -0.006603128349
 82       0.042243258227
 83       0.108327254940
 84      -0.076126882812
 85       0.005584621231
 86       0.473169589085
 87      -0.108032611669
 88       0.064326233675
 89      -0.173360243850
 90       0.039887930454
 91       0.019443689542
 92      -0.014864949505
 93      -0.052859108999
 94       0.030220343382
 95      -0.033068682681
 96       8.071913896395
 97       3.205426005615
 98      -1.874154216457
 99      -0.584284926093
100      -0.010225717057
101       0.051566441409
102       0.004606695933
103       0.133176418785
104      -0.034241411904
105       0.036952650013
106       0.009831960602
107      -0.239897558408
108       0.804906640305
109      -0.217752841185
110       0.028616476475
111      -0.005244782986
112      -0.052044214736
113       0.012152351852
114       0.059598122090
115      -0.179712253883
116      -0.027588848099
117      -8.026001760501
118       2.913167493792
119      -0.973947393221
120      -0.341739171485
121       0.027845858258
122       0.214000321946
123       0.219802917834
124      -0.032033555493
125      -0.017490152392
126      -0.709236214826
127      -0.839297608106
128       0.066932505351
129       0.024210771133
130      -0.022902579734
131      -0.070425801374
132       0.032205360017
133      -0.038103553320
134      -0.169050332368
135       0.217057109904
136       0.041509235386
137       0.604311321814
138       0.091858728888
139       0.078214514044
140       0.026250305554
141       0.249774111889
142       0.118574907292
143      -0.021125771551
144       0.030448059752
145      -0.813494900577
146      -0.333179661720
147       0.163326607405
148      -0.075466316706
149      -0.024433908566
150       0.026418940785
151      -0.010164971941
152       0.073514702006
153       0.056002163708
154       0.176807289875
155      -0.454885824223
156       0.223962955497
157       0.278725619064
158       0.119293048277
159       0.087290091531
160      -0.268672566308
161       0.003082074610
162      -0.025806086253
163       0.003344287390
164       0.061468595687
165      -0.010620637152
166      -0.077996719165
167       0.081951823656
168      -0.039980600925
169      -0.040902986226
170       0.004865662757
171      -0.027381716346
172      -0.028529903559
173      -0.000854565458
174       0.009183340148
175       0.029128338753
176       0.203687200799
177      -0.446953805546
178       0.323507750722
179       0.166515308774
180      -0.015701795999
181       0.153296477510
182       0.062395721341
183      -0.278889415579
184       0.026842633792
185      -0.190895610017
 Sym=     1a
 Ene= -9.05218000000000E-05
 Spin= Alpha
 Occup=-0.000200
  1       0.004428722281
  2      -0.002464432971
  3       0.062032718315
  4      -0.012033628574
  5       0.093360867017
  6      -0.070452725437
  7      -0.464536552155
  8      -0.000979962579
  9      -0.929186564851
 10       0.058508035682
 11      -0.193425006845
 12       0.053037736933
 13      -0.015985448628
 14      -0.011210814365
 15       0.045299440473
 16       0.497163349592
 17       0.144915209379
 18       0.095218775584
 19      -0.246700118536
 20      -0.050256239120
 21      -0.342206094053
 22      -0.153380636488
 23       0.021893535846
 24      -0.086413656319
 25       1.443220945464
 26       0.594351329159
 27      -0.094138786180
 28       0.154780816828
 29      -0.064211307975
 30      -0.081297276510
 31      -0.003439637662
 32      -0.006815023373
 33      -0.028849516316
 34      -0.368725446398
 35       0.274481439190
 36      -0.678104099301
 37       0.099203063497
 38      -0.437854397689
 39       0.038733303982
 40       0.265280185730
 41       0.051576308246
 42      -0.043311924427
 43      -0.152863136949
 44      -1.113700361732
 45      -0.281283269380
 46       0.126947897132
 47       0.434382165215
 48       0.057022243560
 49       0.059499764698
 50       0.012871227452
 51       0.022351699516
 52       0.019037287779
 53       0.295480063004
 54      -1.708219067932
 55      -0.293016425997
 56      -0.032455067590
 57      -0.966448162557
 58       0.017581598261
 59       0.036358520148
 60      -0.051815136342
 61      -0.023168899637
 62      -0.049639842857
 63      -0.488784025124
 64       0.101389800986
 65       0.043802249052
 66       0.190426696311
 67       0.024278752542
 68      -0.092919478295
 69      -0.022700323835
 70       0.000607512261
 71       0.001478790122
 72       0.106428473694
 73      -0.087649767958
 74      -2.108010695824
 75       0.249029569549
 76       0.038406326597
 77       0.074456162908
 78      -0.285215293382
 79      -0.028628023957
 80       0.344347681051
 81      -0.017287264773
 82      -0.124586494158
 83       0.047717683281
 84       0.067105924233
 85      -0.038145784927
 86       0.308235177200
 87      -0.242419840756
 88      -0.460915469741
 89      -0.142326102683
 90       0.006970981010
 91      -0.026112784392
 92       0.051683474945
 93       0.034224168442
 94      -0.010853977296
 95      -0.039392899914
 96       4.683063042845
 97       1.587795237026
 98       0.786272005024
 99      -1.858850371766
100      -0.067392259119
101       0.610838120691
102       0.002723862981
103       0.034571473289
104      -0.005635661133
105      -0.020222200100
106       0.050335222547
107      -0.272745771848
108       0.062965356701
109       0.119766688603
110       0.063438252595
111       0.038816290820
112       0.102005445824
113       0.051053803413
114      -0.026862436203
115      -0.037187100339
116      -0.017726203994
117      -2.229215502955
118       0.165000120824
119      -0.665857695524
120       0.716975584440
121      -0.007794493837
122      -0.045092517126
123      -0.009241128471
124      -0.000261924465
125       0.037906861548
126       0.161725281228
127       0.033972367476
128       0.022329575277
129      -0.039061361382
130      -0.002901164808
131      -0.042142662239
132      -0.066595117112
133      -0.004446031975
134      -0.000965948425
135      -0.068888869805
136       0.827053259327
137      -0.389732710232
138       0.345264892836
139      -0.223081294021
140      -0.001468820727
141      -0.022429098146
142      -0.009599520615
143      -0.023574935195
144       0.155721357266
145       0.071344132447
146      -0.016347638637
147       0.060038941530
148      -0.503785578420
149       0.000234814525
150       0.024103248320
151       0.040046598891
152       0.006337427517
153       0.008569750791
154       0.003903208493
155      -0.198755735028
156       0.169188808524
157      -0.076569484511
158       0.433138794022
159      -0.004917563314
160      -0.023030287869
161      -0.009008339269
162      -0.021981871701
163      -0.039600882358
164      -0.048617831818
165       0.005583406899
166       0.231085507766
167       0.312162392930
168       0.107180363528
169       0.140596037222
170       0.001407841757
171      -0.002037635008
172       0.015610418966
173      -0.008635400633
174       0.000709748447
175      -0.038475690734
176      -2.890122940972
177      -0.148460850488
178       0.508123860812
179      -0.013269950394
180       0.039614392713
181       0.018251867291
182      -0.066837375122
183      -0.105449196065
184      -0.031019676396
185       0.169799898614
 Sym=     1a
 Ene= -7.99670000000000E-05
 Spin= Alpha
 Occup=-0.000200
  1       0.002389182668
  2      -0.012320416507
  3       0.035028089106
  4       0.001033965782
  5       0.060659716157
  6       0.049910993264
  7      -0.226665860420
  8       0.023508647498
  9      -0.369954339068
 10       0.034548944835
 11      -0.096679836539
 12       0.020659263405
 13      -0.012029167122
 14       0.007000494421
 15       0.023142279648
 16       0.524453133479
 17       0.118695741151
 18       0.095178552426
 19      -0.146292866419
 20      -0.019396739579
 21      -0.130087385966
 22      -0.067258889794
 23       0.011454943695
 24      -0.043942748186
 25       0.546452137007
 26       0.277375619104
 27      -0.049587848637
 28       0.142736443109
 29      -0.033426417814
 30      -0.043681456941
 31      -0.002215602815
 32      -0.015492250193
 33      -0.006401997214
 34      -0.147020883391
 35       0.116455553748
 36      -0.415644696748
 37       0.090193358567
 38      -0.323272883347
 39       0.034760044757
 40       0.208106822038
 41       0.022482095941
 42      -0.012477598205
 43      -0.097841316980
 44      -0.819355721604
 45      -0.131415629435
 46       0.048491427523
 47       0.285136234059
 48       0.028119748724
 49       0.038777977809
 50       0.001395142943
 51       0.012139388592
 52      -0.002507696805
 53       0.270445078746
 54      -0.756079501780
 55      -0.134153523796
 56      -0.081493933664
 57      -0.593623982678
 58       0.000475718856
 59       0.010477354916
 60      -0.016472103828
 61       0.004172392987
 62      -0.018888609055
 63      -0.043525489720
 64       0.043360779530
 65      -0.085080761751
 66       0.091697159674
 67       0.017438978334
 68      -0.035623363324
 69       0.003612581532
 70      -0.001506997111
 71      -0.022912327746
 72       0.002085021893
 73       1.723620382065
 74      -0.530206151932
 75       0.501040869663
 76      -0.226499202355
 77       0.021673883904
 78      -0.366212442902
 79      -0.005102476618
 80      -0.164055275001
 81      -0.010406304741
 82      -0.113777277778
 83       0.002387958072
 84      -0.020718163318
 85       0.005852943786
 86       0.244036365963
 87       0.172936063286
 88      -0.043744574930
 89      -0.332978536700
 90       0.005399468796
 91       0.054888822784
 92      -0.042859929658
 93       0.016201627409
 94      -0.004704360553
 95       0.000175339152
 96      -2.028733533557
 97       2.244703257735
 98      -2.365354998623
 99       1.565318352425
100      -0.073542568327
101       0.713134577449
102       0.005753347496
103       0.074604084322
104       0.007915754097
105       0.042499866054
106      -0.111093950107
107      -0.441440280651
108       0.211134105221
109      -0.086912278775
110       0.051262792046
111      -0.018222306586
112      -0.168091344729
113      -0.145872513300
114      -0.001885478463
115       0.032609532852
116      -0.021775703038
117      -4.042005530181
118       1.087616308607
119      -0.159609331500
120      -1.452080772553
121       0.009534472393
122       0.042919828369
123       0.012018866291
124       0.006171093175
125      -0.042217707445
126      -0.169607683170
127      -0.059906291948
128       0.064813711959
129      -0.009305812056
130       0.010135647526
131       0.059360664030
132       0.080860567999
133      -0.001978211183
134      -0.042876518409
135       0.077398398354
136       0.419333985232
137      -0.222516739780
138      -0.095325906025
139       0.640775881511
140       0.001883817920
141       0.002232077768
142       0.001629428763
143       0.037574772089
144      -0.280095611409
145      -0.046524549174
146      -0.015679652229
147      -0.112044315630
148       0.903794059123
149      -0.009097744364
150      -0.031175161595
151      -0.037075131535
152       0.008086887573
153       0.014916175346
154       0.008238464308
155       0.298367302881
156      -0.203330622035
157       0.107278226011
158      -0.843170538515
159       0.019290976975
160      -0.044138658548
161       0.010993741076
162       0.054812330276
163       0.006174469261
164       0.013028670888
165      -0.086042122159
166      -0.097888494399
167      -0.108689934400
168       0.154805951510
169       0.290139416777
170      -0.023092472594
171       0.028756310262
172      -0.023929809422
173      -0.001447890914
174       0.012715141198
175       0.039658824149
176       4.746085060320
177      -0.403454605670
178      -0.823336538731
179       0.225589242935
180       0.006770066043
181      -0.207670605979
182      -0.002509662740
183      -0.100885617675
184       0.167762816662
185      -0.303148546185
 Sym=     1a
 Ene= -5.36644000000000E-05
 Spin= Alpha
 Occup=-0.000100
  1       0.002553063764
  2       0.032749909576
  3       0.032478477304
  4       0.000793094027
  5      -0.005193892336
  6      -0.433557843396
  7      -0.040814003070
  8       0.014963720554
  9      -0.014917076463
 10       0.003950742506
 11       0.001028024409
 12       0.008215611441
 13      -0.014693482155
 14       0.044061878518
 15      -0.000436816918