[Molden Format]
[Atoms] (AU)
C    1    6        -4.088273901545      -0.319181001871       0.623460228501
O    2    8        -4.036429192133      -0.147034582060       2.897972377477
O    3    8        -5.353230384156      -0.259201626601      -1.278149685107
N    4    7        -1.045558836536      -0.900588928086      -0.595531647591
H    5    1        -1.352787873798      -0.774165890493      -2.495649242200
H    6    1        -0.543577481332      -2.730804004795      -0.221011073477
C    7    6         0.952093860043       0.816381066827       0.239195182875
H    8    1         0.697975207786       1.077575374923       2.284239835693
C    9    6         3.431106866163      -0.574929289339      -0.160941776795
O   10    8         3.561499696476      -2.804758544045      -0.693495037653
O   11    8         5.444157917276       0.920977009888       0.190593061407
H   12    1         6.964674639460      -0.101370526153      -0.015776186741
C   13    6         0.770602631352       3.380242988246      -1.098466308836
H   14    1        -1.071724271074       4.239896461606      -0.723051335426
H   15    1         2.243921457729       4.650346301633      -0.408497447949
H   16    1         0.996192140859       3.173398089488      -3.148005414524
[GTO]
  1 0
 s    6  1.00
     3047.5249000000         0.0018347000
      457.3695100000         0.0140373000
      103.9486900000         0.0688426000
       29.2101550000         0.2321844000
        9.2866630000         0.4679413000
        3.1639270000         0.3623120000
 s    3  1.00
        7.8682724000        -0.1193324000
        1.8812885000        -0.1608542000
        0.5442493000         1.1434564000
 p    3  1.00
        7.8682724000         0.0689991000
        1.8812885000         0.3164240000
        0.5442493000         0.7443083000
 s    1  1.00
        0.1687144000         1.0000000000
 p    1  1.00
        0.1687144000         1.0000000000
 d    1  1.00
        0.8000000000         1.0000000000
 s    1  1.00
        0.0438000000         1.0000000000
 p    1  1.00
        0.0438000000         1.0000000000

  2 0
 s    6  1.00
     5484.6717000000         0.0018311000
      825.2349500000         0.0139501000
      188.0469600000         0.0684451000
       52.9645000000         0.2327143000
       16.8975700000         0.4701930000
        5.7996353000         0.3585209000
 s    3  1.00
       15.5396160000        -0.1107775000
        3.5999336000        -0.1480263000
        1.0137618000         1.1307670000
 p    3  1.00
       15.5396160000         0.0708743000
        3.5999336000         0.3397528000
        1.0137618000         0.7271586000
 s    1  1.00
        0.2700058000         1.0000000000
 p    1  1.00
        0.2700058000         1.0000000000
 d    1  1.00
        0.8000000000         1.0000000000
 s    1  1.00
        0.0845000000         1.0000000000
 p    1  1.00
        0.0845000000         1.0000000000

  3 0
 s    6  1.00
     5484.6717000000         0.0018311000
      825.2349500000         0.0139501000
      188.0469600000         0.0684451000
       52.9645000000         0.2327143000
       16.8975700000         0.4701930000
        5.7996353000         0.3585209000
 s    3  1.00
       15.5396160000        -0.1107775000
        3.5999336000        -0.1480263000
        1.0137618000         1.1307670000
 p    3  1.00
       15.5396160000         0.0708743000
        3.5999336000         0.3397528000
        1.0137618000         0.7271586000
 s    1  1.00
        0.2700058000         1.0000000000
 p    1  1.00
        0.2700058000         1.0000000000
 d    1  1.00
        0.8000000000         1.0000000000
 s    1  1.00
        0.0845000000         1.0000000000
 p    1  1.00
        0.0845000000         1.0000000000

  4 0
 s    6  1.00
     4173.5110000000         0.0018348000
      627.4579000000         0.0139950000
      142.9021000000         0.0685870000
       40.2343300000         0.2322410000
       12.8202100000         0.4690700000
        4.3904370000         0.3604550000
 s    3  1.00
       11.6263580000        -0.1149610000
        2.7162800000        -0.1691180000
        0.7722180000         1.1458520000
 p    3  1.00
       11.6263580000         0.0675800000
        2.7162800000         0.3239070000
        0.7722180000         0.7408950000
 s    1  1.00
        0.2120313000         1.0000000000
 p    1  1.00
        0.2120313000         1.0000000000
 d    1  1.00
        0.8000000000         1.0000000000
 s    1  1.00
        0.0639000000         1.0000000000
 p    1  1.00
        0.0639000000         1.0000000000

  5 0
 s    3  1.00
       18.7311370000         0.0334946000
        2.8253937000         0.2347269500
        0.6401217000         0.8137573300
 s    1  1.00
        0.1612778000         1.0000000000

  6 0
 s    3  1.00
       18.7311370000         0.0334946000
        2.8253937000         0.2347269500
        0.6401217000         0.8137573300
 s    1  1.00
        0.1612778000         1.0000000000

  7 0
 s    6  1.00
     3047.5249000000         0.0018347000
      457.3695100000         0.0140373000
      103.9486900000         0.0688426000
       29.2101550000         0.2321844000
        9.2866630000         0.4679413000
        3.1639270000         0.3623120000
 s    3  1.00
        7.8682724000        -0.1193324000
        1.8812885000        -0.1608542000
        0.5442493000         1.1434564000
 p    3  1.00
        7.8682724000         0.0689991000
        1.8812885000         0.3164240000
        0.5442493000         0.7443083000
 s    1  1.00
        0.1687144000         1.0000000000
 p    1  1.00
        0.1687144000         1.0000000000
 d    1  1.00
        0.8000000000         1.0000000000
 s    1  1.00
        0.0438000000         1.0000000000
 p    1  1.00
        0.0438000000         1.0000000000

  8 0
 s    3  1.00
       18.7311370000         0.0334946000
        2.8253937000         0.2347269500
        0.6401217000         0.8137573300
 s    1  1.00
        0.1612778000         1.0000000000

  9 0
 s    6  1.00
     3047.5249000000         0.0018347000
      457.3695100000         0.0140373000
      103.9486900000         0.0688426000
       29.2101550000         0.2321844000
        9.2866630000         0.4679413000
        3.1639270000         0.3623120000
 s    3  1.00
        7.8682724000        -0.1193324000
        1.8812885000        -0.1608542000
        0.5442493000         1.1434564000
 p    3  1.00
        7.8682724000         0.0689991000
        1.8812885000         0.3164240000
        0.5442493000         0.7443083000
 s    1  1.00
        0.1687144000         1.0000000000
 p    1  1.00
        0.1687144000         1.0000000000
 d    1  1.00
        0.8000000000         1.0000000000
 s    1  1.00
        0.0438000000         1.0000000000
 p    1  1.00
        0.0438000000         1.0000000000

  10 0
 s    6  1.00
     5484.6717000000         0.0018311000
      825.2349500000         0.0139501000
      188.0469600000         0.0684451000
       52.9645000000         0.2327143000
       16.8975700000         0.4701930000
        5.7996353000         0.3585209000
 s    3  1.00
       15.5396160000        -0.1107775000
        3.5999336000        -0.1480263000
        1.0137618000         1.1307670000
 p    3  1.00
       15.5396160000         0.0708743000
        3.5999336000         0.3397528000
        1.0137618000         0.7271586000
 s    1  1.00
        0.2700058000         1.0000000000
 p    1  1.00
        0.2700058000         1.0000000000
 d    1  1.00
        0.8000000000         1.0000000000
 s    1  1.00
        0.0845000000         1.0000000000
 p    1  1.00
        0.0845000000         1.0000000000

  11 0
 s    6  1.00
     5484.6717000000         0.0018311000
      825.2349500000         0.0139501000
      188.0469600000         0.0684451000
       52.9645000000         0.2327143000
       16.8975700000         0.4701930000
        5.7996353000         0.3585209000
 s    3  1.00
       15.5396160000        -0.1107775000
        3.5999336000        -0.1480263000
        1.0137618000         1.1307670000
 p    3  1.00
       15.5396160000         0.0708743000
        3.5999336000         0.3397528000
        1.0137618000         0.7271586000
 s    1  1.00
        0.2700058000         1.0000000000
 p    1  1.00
        0.2700058000         1.0000000000
 d    1  1.00
        0.8000000000         1.0000000000
 s    1  1.00
        0.0845000000         1.0000000000
 p    1  1.00
        0.0845000000         1.0000000000

  12 0
 s    3  1.00
       18.7311370000         0.0334946000
        2.8253937000         0.2347269500
        0.6401217000         0.8137573300
 s    1  1.00
        0.1612778000         1.0000000000

  13 0
 s    6  1.00
     3047.5249000000         0.0018347000
      457.3695100000         0.0140373000
      103.9486900000         0.0688426000
       29.2101550000         0.2321844000
        9.2866630000         0.4679413000
        3.1639270000         0.3623120000
 s    3  1.00
        7.8682724000        -0.1193324000
        1.8812885000        -0.1608542000
        0.5442493000         1.1434564000
 p    3  1.00
        7.8682724000         0.0689991000
        1.8812885000         0.3164240000
        0.5442493000         0.7443083000
 s    1  1.00
        0.1687144000         1.0000000000
 p    1  1.00
        0.1687144000         1.0000000000
 d    1  1.00
        0.8000000000         1.0000000000
 s    1  1.00
        0.0438000000         1.0000000000
 p    1  1.00
        0.0438000000         1.0000000000

  14 0
 s    3  1.00
       18.7311370000         0.0334946000
        2.8253937000         0.2347269500
        0.6401217000         0.8137573300
 s    1  1.00
        0.1612778000         1.0000000000

  15 0
 s    3  1.00
       18.7311370000         0.0334946000
        2.8253937000         0.2347269500
        0.6401217000         0.8137573300
 s    1  1.00
        0.1612778000         1.0000000000

  16 0
 s    3  1.00
       18.7311370000         0.0334946000
        2.8253937000         0.2347269500
        0.6401217000         0.8137573300
 s    1  1.00
        0.1612778000         1.0000000000

[MO]
 Sym= A
 Ene=        -0.0002657891
 Spin= Alpha
 Occup= -0.0005
  1       0.012107239259
  2       0.059768939215
  3      -0.027152859585
  4       0.013933722423
  5       0.009041445676
  6       0.161213650937
  7      -0.405937290966
  8       0.119394868068
  9       0.446044081228
 10       0.113312169997
 11      -0.019591527260
 12       0.014825576963
 13      -0.014660751635
 14      -0.069115056522
 15      -0.007630196644
 16       0.103761698100
 17      -0.714976443031
 18       0.333259704302
 19       0.411790686561
 20       0.018177858301
 21       0.197005898835
 22      -0.173741534369
 23       0.020643053293
 24       0.049716931835
 25      -0.728327230019
 26       0.549848396355
 27      -0.059668828156
 28       0.048361424494
 29       0.026530922639
 30       0.045159703347
 31       0.055374421424
 32       0.001675645412
 33      -0.165420237407
 34       0.026127887075
 35      -0.831765654768
 36      -0.123457731912
 37       0.129087087933
 38       0.444282202881
 39       0.016167548553
 40       0.198308777455
 41      -0.179565357719
 42       0.036919576017
 43       0.057771756771
 44      -0.544722749824
 45       0.559746817772
 46      -0.109367671712
 47      -0.281843707494
 48       0.121418840227
 49       0.034735288870
 50      -0.030908449338
 51      -0.017576374289
 52       0.096216817792
 53      -0.030594413541
 54      -0.046295876699
 55      -0.222433477438
 56      -0.006099546087
 57       0.046843369329
 58      -0.013095932102
 59      -0.118618338521
 60      -0.140275225781
 61       0.092107428387
 62       0.126613877444
 63       0.477219095137
 64       0.522079320294
 65      -0.356768722562
 66      -0.400974010737
 67      -0.006857987397
 68       0.003405039940
 69      -0.010006806590
 70       0.011154755276
 71      -0.025500462874
 72       0.001130793534
 73       0.643464195369
 74      -1.791598457449
 75       0.245644126548
 76       1.437419550685
 77      -0.075424880431
 78       0.343401373768
 79      -0.012818619292
 80      -0.213639397556
 81      -0.002419844294
 82      -0.001022102058
 83       0.070083992562
 84      -0.043457367143
 85      -0.022083577929
 86       0.191842937722
 87      -0.159303251583
 88       0.012439757628
 89       0.223597568095
 90      -0.016830376130
 91       0.000029113712
 92       0.005821985433
 93      -0.013364570958
 94      -0.038987077340
 95      -0.048454641944
 96       6.989542476267
 97       2.990495104470
 98      -0.443524834188
 99      -1.742547298695
100      -0.034717731103
101      -0.110160343464
102      -0.002092914703
103       0.062682015856
104      -0.044999544105
105       0.014164923562
106       0.001803201935
107       0.127600084350
108       0.758421905282
109       0.446387576112
110       0.087326853930
111       0.012665638241
112      -0.063202472665
113       0.020806736397
114      -0.040642399178
115       0.033477505046
116      -0.072258045525
117      -4.117708190296
118       1.188175715002
119      -0.417921140905
120       0.024160034408
121      -0.001582301997
122      -0.077907188533
123       0.156666563719
124       0.029808061602
125       0.034085096393
126       0.355755222444
127      -0.640362593480
128       0.055013603764
129      -0.046072039232
130       0.001158035582
131       0.023822688672
132       0.012854356270
133      -0.106191473343
134       0.007831037544
135      -0.018295630211
136       0.401208170812
137       0.054308535606
138       0.126560928994
139      -0.058531268913
140       0.018764752907
141       0.211547358648
142       0.074928420522
143       0.004911245639
144       0.009362853794
145      -0.843361603293
146      -0.085692263467
147       0.122640679385
148       0.008160824212
149       0.061790146914
150       0.040159592298
151       0.025264830564
152       0.022553484226
153       0.017158403869
154      -0.001142721831
155      -0.981123450369
156       0.396410689735
157       0.198390834120
158       0.040713070504
159       0.021610131037
160       0.023881494617
161      -0.001004054790
162      -0.043502768817
163      -0.000283443480
164       0.042453243130
165       0.017160866081
166       0.086252508977
167       0.004551874648
168      -0.153870702636
169      -0.070828354774
170      -0.032218446404
171       0.041170060824
172       0.004272735248
173      -0.023542685656
174      -0.012011570030
175       0.062240365083
176      -2.151800826307
177      -0.726301946911
178       0.727113655848
179       0.051820229179
180       0.011108508514
181      -0.046143293503
182       0.040951357203
183      -0.104736919356
184      -0.045705760517
185       0.132501752850
 Sym= A
 Ene=        -0.0001586476
 Spin= Alpha
 Occup= -0.0003
  1      -0.009745911751
  2      -0.044401066778
  3       0.050288915782
  4       0.012473708088
  5      -0.016085081191
  6      -0.172250233424
  7       0.110803873331
  8      -0.058082136891
  9      -0.520120267833
 10      -0.073956200820
 11       0.021074000858
 12      -0.004136132994
 13       0.049421251279
 14       0.044150434745
 15      -0.024084850931
 16       1.289953676951
 17       0.935980301111
 18       0.144134009150
 19      -0.242557801921
 20      -0.027807490464
 21      -0.238677645359
 22       0.090174832381
 23      -0.008183887702
 24      -0.034411683656
 25       0.930859727641
 26      -0.270198924692
 27       0.020761238719
 28      -0.103385074156
 29      -0.072075629207
 30      -0.072939545561
 31      -0.086542631529
 32       0.012593350986
 33       0.084680726573
 34      -0.006205653647
 35       0.538166258250
 36       0.180667240906
 37      -0.025415156351
 38      -0.273330235416
 39      -0.016403751691
 40      -0.153368358658
 41       0.099243327451
 42      -0.009823111545
 43      -0.034785944262
 44       0.327071711240
 45      -0.323308302288
 46       0.055256564997
 47       0.147401464191
 48      -0.087157388346
 49      -0.065236185033
 50      -0.006057631392
 51       0.008223046380
 52      -0.057341438060
 53       0.002256178143
 54       0.130169783321
 55       0.252704500153
 56      -0.102286224710
 57      -0.025271315900
 58      -0.010957794951
 59      -0.106719404894
 60       0.040121497335
 61       0.002918762943
 62      -0.071825709590
 63       0.282873965047
 64      -0.063896490542
 65      -0.119474707482
 66       0.268233709487
 67       0.001688324397
 68      -0.021166345384
 69      -0.036620261620
 70      -0.018061516711
 71       0.003267514808
 72       0.001537181303
 73      -1.431946691549
 74       1.157678178641
 75      -0.267446275917
 76      -0.574684659535
 77       0.049598373615
 78      -0.059890872481
 79       0.002505863847
 80      -0.075541597200
 81      -0.006603128349
 82       0.042243258227
 83       0.108327254940
 84      -0.076126882812
 85       0.005584621231
 86       0.473169589085
 87      -0.108032611669
 88       0.064326233675
 89      -0.173360243850
 90      -0.080510060922
 91       0.011044601507
 92       0.025099165974
 93       0.030220343382
 94       0.019443689542
 95      -0.014864949505
 96       8.071913896395
 97       3.205426005615
 98      -1.874154216457
 99      -0.584284926093
100      -0.010225717057
101       0.051566441409
102       0.004606695933
103       0.133176418785
104      -0.034241411904
105       0.036952650013
106       0.009831960602
107      -0.239897558408
108       0.804906640305
109      -0.217752841185
110       0.028616476475
111       0.041897771287
112      -0.061329204209
113      -0.017582890940
114      -0.179712253883
115      -0.052044214736
116       0.012152351852
117      -8.026001760501
118       2.913167493792
119      -0.973947393221
120      -0.341739171485
121       0.027845858258
122       0.214000321946
123       0.219802917834
124      -0.032033555493
125      -0.017490152392
126      -0.709236214826
127      -0.839297608106
128       0.066932505351
129       0.024210771133
130       0.075523535266
131       0.141520825566
132       0.074168310815
133      -0.169050332368
134      -0.070425801374
135       0.032205360017
136       0.041509235386
137       0.604311321814
138       0.091858728888
139       0.078214514044
140       0.026250305554
141       0.249774111889
142       0.118574907292
143      -0.021125771551
144       0.030448059752
145      -0.813494900577
146      -0.333179661720
147       0.163326607405
148      -0.075466316706
149       0.154953177587
150       0.027621978610
151       0.054636715250
152       0.056002163708
153       0.026418940785
154      -0.010164971941
155      -0.454885824223
156       0.223962955497
157       0.278725619064
158       0.119293048277
159       0.087290091531
160      -0.268672566308
161       0.003082074610
162      -0.025806086253
163       0.003344287390
164       0.061468595687
165      -0.010620637152
166      -0.077996719165
167       0.081951823656
168      -0.039980600925
169      -0.040902986226
170       0.009853682330
171       0.011333833122
172       0.017892251862
173       0.009183340148
174      -0.027381716346
175      -0.028529903559
176       0.203687200799
177      -0.446953805546
178       0.323507750722
179       0.166515308774
180      -0.015701795999
181       0.153296477510
182       0.062395721341
183      -0.278889415579
184       0.026842633792
185      -0.190895610017
 Sym= A
 Ene=        -0.0000905218
 Spin= Alpha
 Occup= -0.0002
  1       0.004428722281
  2      -0.002464432971
  3       0.062032718315
  4      -0.012033628574
  5       0.093360867017
  6      -0.070452725437
  7      -0.464536552155
  8      -0.000979962579
  9      -0.929186564851
 10      -0.022839296796
 11       0.004848312410
 12       0.078766561330
 13      -0.011210814365
 14      -0.193425006845
 15       0.053037736933
 16       0.497163349592
 17       0.144915209379
 18       0.095218775584
 19      -0.246700118536
 20      -0.050256239120
 21      -0.342206094053
 22      -0.153380636488
 23       0.021893535846
 24      -0.086413656319
 25       1.443220945464
 26       0.594351329159
 27      -0.094138786180
 28       0.154780816828
 29      -0.138695362017
 30      -0.126891395280
 31      -0.229110340611
 32      -0.028849516316
 33      -0.081297276510
 34      -0.003439637662
 35       0.274481439190
 36      -0.678104099301
 37       0.099203063497
 38      -0.437854397689
 39       0.038733303982
 40       0.265280185730
 41       0.051576308246
 42      -0.043311924427
 43      -0.152863136949
 44      -1.113700361732
 45      -0.281283269380
 46       0.126947897132
 47       0.434382165215
 48       0.122988719193
 49       0.084274439996
 50       0.189164944935
 51       0.019037287779
 52       0.059499764698
 53       0.012871227452
 54      -1.708219067932
 55      -0.293016425997
 56      -0.032455067590
 57      -0.966448162557
 58       0.017581598261
 59       0.036358520148
 60      -0.051815136342
 61      -0.023168899637
 62      -0.049639842857
 63      -0.488784025124
 64       0.101389800986
 65       0.043802249052
 66       0.190426696311
 67       0.035983005165
 68       0.034930763062
 69       0.071875012926
 70       0.001478790122
 71      -0.092919478295
 72      -0.022700323835
 73      -0.087649767958
 74      -2.108010695824
 75       0.249029569549
 76       0.038406326597
 77       0.074456162908
 78      -0.285215293382
 79      -0.028628023957
 80       0.344347681051
 81      -0.017287264773
 82      -0.124586494158
 83       0.047717683281
 84       0.067105924233
 85      -0.038145784927
 86       0.308235177200
 87      -0.242419840756
 88      -0.460915469741
 89      -0.142326102683
 90       0.008536468382
 91      -0.050741530207
 92      -0.010646059398
 93      -0.010853977296
 94      -0.026112784392
 95       0.051683474945
 96       4.683063042845
 97       1.587795237026
 98       0.786272005024
 99      -1.858850371766
100      -0.067392259119
101       0.610838120691
102       0.002723862981
103       0.034571473289
104      -0.005635661133
105      -0.020222200100
106       0.050335222547
107      -0.272745771848
108       0.062965356701
109       0.119766688603
110       0.063438252595
111      -0.050599096992
112      -0.004071992673
113       0.030888891397
114      -0.037187100339
115       0.102005445824
116       0.051053803413
117      -2.229215502955
118       0.165000120824
119      -0.665857695524
120       0.716975584440
121      -0.007794493837
122      -0.045092517126
123      -0.009241128471
124      -0.000261924465
125       0.037906861548
126       0.161725281228
127       0.033972367476
128       0.022329575277
129      -0.039061361382
130      -0.033207833388
131      -0.025507080115
132      -0.033709203963
133      -0.000965948425
134      -0.042142662239
135      -0.066595117112
136       0.827053259327
137      -0.389732710232
138       0.345264892836
139      -0.223081294021
140      -0.001468820727
141      -0.022429098146
142      -0.009599520615
143      -0.023574935195
144       0.155721357266
145       0.071344132447
146      -0.016347638637
147       0.060038941530
148      -0.503785578420
149       0.007116533866
150      -0.003860212583
151       0.001980382429
152       0.008569750791
153       0.024103248320
154       0.040046598891
155      -0.198755735028
156       0.169188808524
157      -0.076569484511
158       0.433138794022
159      -0.004917563314
160      -0.023030287869
161      -0.009008339269
162      -0.021981871701
163      -0.039600882358
164      -0.048617831818
165       0.005583406899
166       0.231085507766
167       0.312162392930
168       0.107180363528
169       0.140596037222
170      -0.025389249191
171      -0.010432296551
172      -0.015799010235
173       0.000709748447
174      -0.002037635008
175       0.015610418966
176      -2.890122940972
177      -0.148460850488
178       0.508123860812
179      -0.013269950394
180       0.039614392713
181       0.018251867291
182      -0.066837375122
183      -0.105449196065
184      -0.031019676396
185       0.169799898614
 Sym= A
 Ene=        -0.0000799670
 Spin= Alpha
 Occup= -0.0002
  1       0.002389182668
  2      -0.012320416507
  3       0.035028089106
  4       0.001033965782
  5       0.060659716157
  6       0.049910993264
  7      -0.226665860420
  8       0.023508647498
  9      -0.369954339068
 10      -0.017342494642
 11       0.003492633986
 12       0.044898486924
 13       0.007000494421
 14      -0.096679836539
 15       0.020659263405
 16       0.524453133479
 17       0.118695741151
 18       0.095178552426
 19      -0.146292866419
 20      -0.019396739579
 21      -0.130087385966
 22      -0.067258889794
 23       0.011454943695
 24      -0.043942748186
 25       0.546452137007
 26       0.277375619104
 27      -0.049587848637
 28       0.142736443109
 29      -0.062453211197
 30      -0.035619846739
 31      -0.099176155689
 32      -0.006401997214
 33      -0.043681456941
 34      -0.002215602815
 35       0.116455553748
 36      -0.415644696748
 37       0.090193358567
 38      -0.323272883347
 39       0.034760044757
 40       0.208106822038
 41       0.022482095941
 42      -0.012477598205
 43      -0.097841316980
 44      -0.819355721604
 45      -0.131415629435
 46       0.048491427523
 47       0.285136234059
 48       0.117399860597
 49       0.096373822782
 50       0.149066464775
 51      -0.002507696805
 52       0.038777977809
 53       0.001395142943
 54      -0.756079501780
 55      -0.134153523796
 56      -0.081493933664
 57      -0.593623982678
 58       0.000475718856
 59       0.010477354916
 60      -0.016472103828
 61       0.004172392987
 62      -0.018888609055
 63      -0.043525489720
 64       0.043360779530
 65      -0.085080761751
 66       0.091697159674
 67      -0.009092136811
 68      -0.006481941248
 69       0.018371428471
 70      -0.022912327746
 71      -0.035623363324
 72       0.003612581532
 73       1.723620382065
 74      -0.530206151932
 75       0.501040869663
 76      -0.226499202355
 77       0.021673883904
 78      -0.366212442902
 79      -0.005102476618
 80      -0.164055275001
 81      -0.010406304741
 82      -0.113777277778
 83       0.002387958072
 84      -0.020718163318
 85       0.005852943786
 86       0.244036365963
 87       0.172936063286
 88      -0.043744574930
 89      -0.332978536700
 90       0.011409700573
 91      -0.016652341264
 92       0.005477882849
 93      -0.004704360553
 94       0.054888822784
 95      -0.042859929658
 96      -2.028733533557
 97       2.244703257735
 98      -2.365354998623
 99       1.565318352425
100      -0.073542568327
101       0.713134577449
102       0.005753347496
103       0.074604084322
104       0.007915754097
105       0.042499866054
106      -0.111093950107
107      -0.441440280651
108       0.211134105221
109      -0.086912278775
110       0.051262792046
111      -0.002260109404
112       0.001005635090
113      -0.027960697036
114       0.032609532852
115      -0.168091344729
116      -0.145872513300
117      -4.042005530181
118       1.087616308607
119      -0.159609331500
120      -1.452080772553
121       0.009534472393
122       0.042919828369
123       0.012018866291
124       0.006171093175
125      -0.042217707445
126      -0.169607683170
127      -0.059906291948
128       0.064813711959
129      -0.009305812056
130       0.027832611112
131       0.031258973389
132       0.044749263540
133      -0.042876518409
134       0.059360664030
135       0.080860567999
136       0.419333985232
137      -0.222516739780
138      -0.095325906025
139       0.640775881511
140       0.001883817920
141       0.002232077768
142       0.001629428763
143       0.037574772089
144      -0.280095611409
145      -0.046524549174
146      -0.015679652229
147      -0.112044315630
148       0.903794059123
149       0.015236675502
150       0.001229775351
151      -0.005413391119
152       0.014916175346
153      -0.031175161595
154      -0.037075131535
155       0.298367302881
156      -0.203330622035
157       0.107278226011
158      -0.843170538515
159       0.019290976975
160      -0.044138658548
161       0.010993741076
162       0.054812330276
163       0.006174469261
164       0.013028670888
165      -0.086042122159
166      -0.097888494399
167      -0.108689934400
168       0.154805951510
169       0.290139416777
170       0.028028291325
171       0.030536111951
172      -0.005356507253
173       0.012715141198
174       0.028756310262
175      -0.023929809422
176       4.746085060320
177      -0.403454605670
178      -0.823336538731
179       0.225589242935
180       0.006770066043
181      -0.207670605979
182      -0.002509662740
183      -0.100885617675
184       0.167762816662
185      -0.303148546185
 Sym= A
 Ene=        -0.0000536644
 Spin= Alpha
 Occup= -0.0001
  1       0.002553063764
  2       0.032749909576
  3       0.032478477304
  4       0.000793094027
  5      -0.005193892336
  6      -0.433557843396
  7      -0.040814003070
  8       0.014963720554
  9      -0.014917076463
 10      -0.014895650534
 11       0.010554207099
 12       0.003755392041
 13       0.044061878518
 14       0.001028024409
 15       0.008215611441
 16       0.153402547966
 17       0.266943127546
 18      -0.100856831877
 19      -0.314318194367
 20      -0.007470779287
 21      -0.038741989368
 22       0.015479412817
 23       0.009592541201
 24      -0.008555201373
 25       0.114091910022
 26      -0.045354900726
 27      -0.031289011452
 28      -0.036703532772
 29      -0.029201126220
 30      -0.031713640505
 31      -0.026308828645
 32      -0.008683451191
 33       0.005240415891
 34       0.008639836268
 35       0.746210129209
 36       0.090515295226
 37      -0.028080671666
 38      -0.211998381760
 39      -0.023875341698