
    -----------------------------------------------------------------------
          Psi4: An Open-Source Ab Initio Electronic Structure Package
                               Psi4 1.2.1 release

                         Git: Rev {HEAD} 406f4de 


    R. M. Parrish, L. A. Burns, D. G. A. Smith, A. C. Simmonett,
    A. E. DePrince III, E. G. Hohenstein, U. Bozkaya, A. Yu. Sokolov,
    R. Di Remigio, R. M. Richard, J. F. Gonthier, A. M. James,
    H. R. McAlexander, A. Kumar, M. Saitow, X. Wang, B. P. Pritchard,
    P. Verma, H. F. Schaefer III, K. Patkowski, R. A. King, E. F. Valeev,
    F. A. Evangelista, J. M. Turney, T. D. Crawford, and C. D. Sherrill,
    J. Chem. Theory Comput. 13(7) pp 3185--3197 (2017).
    (doi: 10.1021/acs.jctc.7b00174)


                         Additional Contributions by
    P. Kraus, H. Kruse, M. H. Lechner, M. C. Schieber, and R. A. Shaw

    -----------------------------------------------------------------------


    Psi4 started on: Friday, 15 February 2019 12:45PM

    Process ID: 44872
    Host:       localhost.localdomain
    PSIDATADIR: /root/psi4conda/share/psi4
    Memory:     500.0 MiB
    Threads:    1
    
  ==> Input File <==

--------------------------------------------------------------------------

molecule{ 
0 1
 C   -2.163421371171   -0.168903311605    0.329920943385
 O   -2.135986332564   -0.077807349701    1.533540933284
 O   -2.832807511627   -0.137163593227   -0.676367682525
 N   -0.553285906535   -0.476571135052   -0.315141774899
 H   -0.715864510871   -0.409670944917   -1.320640699607
 H   -0.287648814224   -1.445079240464   -0.116954022930
 C    0.503826371173    0.432010254089    0.126576639182
 H    0.369352572121    0.570228328947    1.208767660002
 C    1.815663553810   -0.304239476469   -0.085166720190
 O    1.884664467775   -1.484214297107   -0.366981768196
 O    2.880924289787    0.487360043268    0.100857504212
 H    3.685547084447   -0.053642972063   -0.008348398462
 C    0.407785349391    1.788747548876   -0.581283335040
 H   -0.567132058145    2.243656574263   -0.382622287348
 H    1.187432093296    2.460857274875   -0.216167539222
 H    0.527162176319    1.679289942740   -1.665852717884
}

set basis 6-31+G*
set_num_threads(16)
e, wfn = properties('mp2', return_wfn=True)

d = wfn.Da().to_array()
s = wfn.S().to_array()
c = wfn.Ca().to_array()
occs = c.T.dot(s.dot(d).dot(s).dot(c))

molden(wfn, 'mp2.molden', density_a = psi4.core.Matrix.from_array(occs))
--------------------------------------------------------------------------
  Threads set to 16 by Python driver.
    SCF Algorithm Type (re)set to DF.

*** tstart() called on localhost.localdomain
*** at Fri Feb 15 12:45:27 2019

   => Loading Basis Set <=

    Name: 6-31+G*
    Role: ORBITAL
    Keyword: BASIS
    atoms 1, 7, 9, 13       entry C          line   119 file /root/psi4conda/share/psi4/basis/6-31pgs.gbs 
    atoms 2-3, 10-11        entry O          line   157 file /root/psi4conda/share/psi4/basis/6-31pgs.gbs 
    atoms 4                 entry N          line   138 file /root/psi4conda/share/psi4/basis/6-31pgs.gbs 
    atoms 5-6, 8, 12, 14-16 entry H          line    46 file /root/psi4conda/share/psi4/basis/6-31pgs.gbs 


         ---------------------------------------------------------
                                   SCF
            by Justin Turney, Rob Parrish, Andy Simmonett
                             and Daniel Smith
                              RHF Reference
                       16 Threads,    500 MiB Core
         ---------------------------------------------------------

  ==> Geometry <==

    Molecular point group: c1
    Full point group: C1

    Geometry (in Angstrom), charge = 0, multiplicity = 1:

       Center              X                  Y                   Z               Mass       
    ------------   -----------------  -----------------  -----------------  -----------------
         C           -2.163421371171    -0.168903311605     0.329920943385    12.000000000000
         O           -2.135986332564    -0.077807349701     1.533540933284    15.994914619560
         O           -2.832807511627    -0.137163593227    -0.676367682525    15.994914619560
         N           -0.553285906535    -0.476571135052    -0.315141774899    14.003074004780
         H           -0.715864510871    -0.409670944917    -1.320640699607     1.007825032070
         H           -0.287648814224    -1.445079240464    -0.116954022930     1.007825032070
         C            0.503826371173     0.432010254089     0.126576639182    12.000000000000
         H            0.369352572121     0.570228328947     1.208767660002     1.007825032070
         C            1.815663553810    -0.304239476469    -0.085166720190    12.000000000000
         O            1.884664467775    -1.484214297107    -0.366981768196    15.994914619560
         O            2.880924289787     0.487360043268     0.100857504212    15.994914619560
         H            3.685547084447    -0.053642972063    -0.008348398462     1.007825032070
         C            0.407785349391     1.788747548876    -0.581283335040    12.000000000000
         H           -0.567132058145     2.243656574263    -0.382622287348     1.007825032070
         H            1.187432093296     2.460857274875    -0.216167539222     1.007825032070
         H            0.527162176319     1.679289942740    -1.665852717884     1.007825032070

  Running in c1 symmetry.

  Rotational constants: A =      0.10623  B =      0.02944  C =      0.02732 [cm^-1]
  Rotational constants: A =   3184.72999  B =    882.52401  C =    818.89675 [MHz]
  Nuclear repulsion =  463.002357717751465

  Charge       = 0
  Multiplicity = 1
  Electrons    = 70
  Nalpha       = 35
  Nbeta        = 35

  ==> Algorithm <==

  SCF Algorithm Type is DF.
  DIIS enabled.
  MOM disabled.
  Fractional occupation disabled.
  Guess Type is SAD.
  Energy threshold   = 1.00e-10
  Density threshold  = 1.00e-10
  Integral threshold = 0.00e+00

  ==> Primary Basis <==

  Basis Set: 6-31+G*
    Blend: 6-31+G*
    Number of shells: 86
    Number of basis function: 185
    Number of Cartesian functions: 185
    Spherical Harmonics?: false
    Max angular momentum: 2

   => Loading Basis Set <=

    Name: (6-31+G* AUX)
    Role: JKFIT
    Keyword: DF_BASIS_SCF
    atoms 1, 7, 9, 13       entry C          line   194 file /root/psi4conda/share/psi4/basis/heavy-aug-cc-pvdz-jkfit.gbs 
    atoms 2-3, 10-11        entry O          line   310 file /root/psi4conda/share/psi4/basis/heavy-aug-cc-pvdz-jkfit.gbs 
    atoms 4                 entry N          line   252 file /root/psi4conda/share/psi4/basis/heavy-aug-cc-pvdz-jkfit.gbs 
    atoms 5-6, 8, 12, 14-16 entry H          line   116 file /root/psi4conda/share/psi4/basis/heavy-aug-cc-pvdz-jkfit.gbs 

  ==> Pre-Iterations <==

   -------------------------------------------------------
    Irrep   Nso     Nmo     Nalpha   Nbeta   Ndocc  Nsocc
   -------------------------------------------------------
     A        185     185       0       0       0       0
   -------------------------------------------------------
    Total     185     185      35      35      35       0
   -------------------------------------------------------

  ==> Integral Setup <==

  ==> DiskDFJK: Density-Fitted J/K Matrices <==

    J tasked:                  Yes
    K tasked:                  Yes
    wK tasked:                  No
    OpenMP threads:             16
    Integrals threads:          16
    Memory (MB):               375
    Algorithm:                Core
    Integral Cache:           NONE
    Schwarz Cutoff:          1E-12
    Fitting Condition:       1E-12

   => Auxiliary Basis Set <=

  Basis Set: (6-31+G* AUX)
    Blend: HEAVY-AUG-CC-PVDZ-JKFIT
    Number of shells: 315
    Number of basis function: 1084
    Number of Cartesian functions: 1084
    Spherical Harmonics?: false
    Max angular momentum: 3

  Minimum eigenvalue in the overlap matrix is 3.9070291657E-05.
  Using Symmetric Orthogonalization.

  SCF Guess: Superposition of Atomic Densities via on-the-fly atomic UHF.

  ==> Iterations <==

                           Total Energy        Delta E     RMS |[F,P]|

   @DF-RHF iter   0:  -512.46025804512215   -5.12460e+02   1.08998e-01 
   @DF-RHF iter   1:  -509.07775625073299    3.38250e+00   1.53548e-02 
   @DF-RHF iter   2:  -509.31783811808873   -2.40082e-01   1.30573e-02 DIIS
   @DF-RHF iter   3:  -509.46882245050540   -1.50984e-01   1.90617e-03 DIIS
   @DF-RHF iter   4:  -509.47708764991637   -8.26520e-03   7.21123e-04 DIIS
   @DF-RHF iter   5:  -509.47816611122613   -1.07846e-03   2.40095e-04 DIIS
   @DF-RHF iter   6:  -509.47836702205223   -2.00911e-04   1.16287e-04 DIIS
   @DF-RHF iter   7:  -509.47840215808390   -3.51360e-05   4.09302e-05 DIIS
   @DF-RHF iter   8:  -509.47840708944000   -4.93136e-06   1.59825e-05 DIIS
   @DF-RHF iter   9:  -509.47840769930104   -6.09861e-07   5.72817e-06 DIIS
   @DF-RHF iter  10:  -509.47840778597089   -8.66698e-08   2.16362e-06 DIIS
   @DF-RHF iter  11:  -509.47840779928288   -1.33120e-08   6.03078e-07 DIIS
   @DF-RHF iter  12:  -509.47840780054014   -1.25726e-09   3.46013e-07 DIIS
   @DF-RHF iter  13:  -509.47840780080975   -2.69608e-10   1.07185e-07 DIIS
   @DF-RHF iter  14:  -509.47840780086375   -5.40012e-11   4.69818e-08 DIIS
   @DF-RHF iter  15:  -509.47840780087273   -8.98126e-12   2.00591e-08 DIIS
   @DF-RHF iter  16:  -509.47840780087506   -2.33058e-12   8.03932e-09 DIIS
   @DF-RHF iter  17:  -509.47840780087643   -1.36424e-12   2.46844e-09 DIIS
   @DF-RHF iter  18:  -509.47840780087608    3.41061e-13   1.01249e-09 DIIS
   @DF-RHF iter  19:  -509.47840780087478    1.30740e-12   5.36251e-10 DIIS
   @DF-RHF iter  20:  -509.47840780087557   -7.95808e-13   1.71986e-10 DIIS
   @DF-RHF iter  21:  -509.47840780087529    2.84217e-13   6.54048e-11 DIIS

  ==> Post-Iterations <==

    Orbital Energies [Eh]
    ---------------------

    Doubly Occupied:                                                      

       1A    -20.670548     2A    -20.611084     3A    -20.566640  
       4A    -20.560012     5A    -15.657958     6A    -11.439897  
       7A    -11.424534     8A    -11.334901     9A    -11.270658  
      10A     -1.513761    11A     -1.442506    12A     -1.410954  
      13A     -1.361469    14A     -1.285596    15A     -1.076517  
      16A     -0.955546    17A     -0.858789    18A     -0.783381  
      19A     -0.763723    20A     -0.745692    21A     -0.727709  
      22A     -0.692751    23A     -0.672285    24A     -0.662381  
      25A     -0.646733    26A     -0.631202    27A     -0.613065  
      28A     -0.590567    29A     -0.573014    30A     -0.559047  
      31A     -0.524072    32A     -0.497718    33A     -0.466359  
      34A     -0.447951    35A     -0.444504  

    Virtual:                                                              

      36A      0.050903    37A      0.071963    38A      0.077602  
      39A      0.082902    40A      0.105889    41A      0.111701  
      42A      0.116307    43A      0.120863    44A      0.127548  
      45A      0.131608    46A      0.150279    47A      0.153527  
      48A      0.174984    49A      0.178443    50A      0.185066  
      51A      0.195151    52A      0.215953    53A      0.226824  
      54A      0.235707    55A      0.250443    56A      0.266808  
      57A      0.272954    58A      0.280157    59A      0.291718  
      60A      0.304337    61A      0.320171    62A      0.325067  
      63A      0.334078    64A      0.345203    65A      0.346387  
      66A      0.358319    67A      0.364913    68A      0.369485  
      69A      0.384750    70A      0.386211    71A      0.399442  
      72A      0.400624    73A      0.412589    74A      0.421502  
      75A      0.426790    76A      0.435864    77A      0.441532  
      78A      0.465950    79A      0.474490    80A      0.484525  
      81A      0.491452    82A      0.506637    83A      0.534073  
      84A      0.562365    85A      0.580187    86A      0.640015  
      87A      0.684708    88A      0.799253    89A      0.832602  
      90A      0.850715    91A      0.884059    92A      0.919381  
      93A      0.923798    94A      0.976516    95A      0.985139  
      96A      1.008020    97A      1.030776    98A      1.060925  
      99A      1.070668   100A      1.084019   101A      1.144844  
     102A      1.190708   103A      1.215910   104A      1.235666  
     105A      1.247475   106A      1.264571   107A      1.284011  
     108A      1.305611   109A      1.318885   110A      1.364792  
     111A      1.383839   112A      1.387016   113A      1.405098  
     114A      1.420200   115A      1.471830   116A      1.493614  
     117A      1.503491   118A      1.539418   119A      1.544658  
     120A      1.567262   121A      1.584511   122A      1.595546  
     123A      1.608052   124A      1.632597   125A      1.635011  
     126A      1.641833   127A      1.664349   128A      1.696412  
     129A      1.733280   130A      1.761975   131A      1.826783  
     132A      1.858960   133A      1.898345   134A      1.919953  
     135A      1.935534   136A      1.979027   137A      2.003034  
     138A      2.013667   139A      2.034964   140A      2.063745  
     141A      2.083547   142A      2.099512   143A      2.114958  
     144A      2.149143   145A      2.204899   146A      2.213361  
     147A      2.239374   148A      2.266388   149A      2.271004  
     150A      2.311619   151A      2.352287   152A      2.385710  
     153A      2.413340   154A      2.436753   155A      2.517054  
     156A      2.545779   157A      2.607594   158A      2.610479  
     159A      2.652201   160A      2.720265   161A      2.734274  
     162A      2.789748   163A      2.855861   164A      2.897033  
     165A      2.944041   166A      2.982949   167A      2.993443  
     168A      3.193314   169A      3.223499   170A      3.261505  
     171A      3.291804   172A      3.309899   173A      3.451928  
     174A      3.482391   175A      3.543437   176A      3.656890  
     177A      4.378737   178A      4.541646   179A      4.624353  
     180A      4.659494   181A      4.767046   182A      4.853013  
     183A      4.928364   184A      5.009750   185A      5.079854  

    Final Occupation by Irrep:
              A 
    DOCC [    35 ]

  Energy converged.

  @DF-RHF Final Energy:  -509.47840780087529

   => Energetics <=

    Nuclear Repulsion Energy =            463.0023577177514653
    One-Electron Energy =               -1615.9944833252948229
    Two-Electron Energy =                 643.5137178066680690
    Total Energy =                       -509.4784078008752886


*** tstop() called on localhost.localdomain at Fri Feb 15 12:45:31 2019
Module time:
	user time   =      53.02 seconds =       0.88 minutes
	system time =       3.81 seconds =       0.06 minutes
	total time  =          4 seconds =       0.07 minutes
Total time:
	user time   =      53.02 seconds =       0.88 minutes
	system time =       3.81 seconds =       0.06 minutes
	total time  =          4 seconds =       0.07 minutes
   => Loading Basis Set <=

    Name: (6-31+G* AUX)
    Role: RIFIT
    Keyword: DF_BASIS_MP2
    atoms 1, 7, 9, 13       entry C          line   116 file /root/psi4conda/share/psi4/basis/heavy-aug-cc-pvdz-ri.gbs 
    atoms 2-3, 10-11        entry O          line   208 file /root/psi4conda/share/psi4/basis/heavy-aug-cc-pvdz-ri.gbs 
    atoms 4                 entry N          line   162 file /root/psi4conda/share/psi4/basis/heavy-aug-cc-pvdz-ri.gbs 
    atoms 5-6, 8, 12, 14-16 entry H          line    44 file /root/psi4conda/share/psi4/basis/heavy-aug-cc-pvdz-ri.gbs 


  //>>>>>>>>>>>>>>>>>>>>>>>>>>>>>>>>>>>//
  //               DFMP2               //
  //<<<<<<<<<<<<<<<<<<<<<<<<<<<<<<<<<<<//

	 --------------------------------------------------------
	                          DF-MP2                         
	      2nd-Order Density-Fitted Moller-Plesset Theory     
	              RMP2 Wavefunction,  16 Threads             
	                                                         
	        Rob Parrish, Justin Turney, Andy Simmonett,      
	           Ed Hohenstein, and C. David Sherrill          
	 --------------------------------------------------------

   => Auxiliary Basis Set <=

  Basis Set: (6-31+G* AUX)
    Blend: HEAVY-AUG-CC-PVDZ-RI
    Number of shells: 240
    Number of basis function: 746
    Number of Cartesian functions: 879
    Spherical Harmonics?: true
    Max angular momentum: 3

	 --------------------------------------------------------
	                 NBF =   185, NAUX =   746
	 --------------------------------------------------------
	   CLASS    FOCC     OCC    AOCC    AVIR     VIR    FVIR
	   PAIRS       0      35      35     150     150       0
	 --------------------------------------------------------


         ------------------------------------------------------------
                                     CPHF                           
                                  Rob Parrish                       
         ------------------------------------------------------------

  ==> Geometry <==

    Molecular point group: c1
    Full point group: C1

    Geometry (in Angstrom), charge = 0, multiplicity = 1:

       Center              X                  Y                   Z               Mass       
    ------------   -----------------  -----------------  -----------------  -----------------
         C           -2.163421371171    -0.168903311605     0.329920943385    12.000000000000
         O           -2.135986332564    -0.077807349701     1.533540933284    15.994914619560
         O           -2.832807511627    -0.137163593227    -0.676367682525    15.994914619560
         N           -0.553285906535    -0.476571135052    -0.315141774899    14.003074004780
         H           -0.715864510871    -0.409670944917    -1.320640699607     1.007825032070
         H           -0.287648814224    -1.445079240464    -0.116954022930     1.007825032070
         C            0.503826371173     0.432010254089     0.126576639182    12.000000000000
         H            0.369352572121     0.570228328947     1.208767660002     1.007825032070
         C            1.815663553810    -0.304239476469    -0.085166720190    12.000000000000
         O            1.884664467775    -1.484214297107    -0.366981768196    15.994914619560
         O            2.880924289787     0.487360043268     0.100857504212    15.994914619560
         H            3.685547084447    -0.053642972063    -0.008348398462     1.007825032070
         C            0.407785349391     1.788747548876    -0.581283335040    12.000000000000
         H           -0.567132058145     2.243656574263    -0.382622287348     1.007825032070
         H            1.187432093296     2.460857274875    -0.216167539222     1.007825032070
         H            0.527162176319     1.679289942740    -1.665852717884     1.007825032070

  Nuclear repulsion =  463.002357717751465
  Reference energy  = -509.478407800875289

  ==> Basis Set <==

  Basis Set: 6-31+G*
    Blend: 6-31+G*
    Number of shells: 86
    Number of basis function: 185
    Number of Cartesian functions: 185
    Spherical Harmonics?: false
    Max angular momentum: 2

  ==> CGRSolver (by Rob Parrish) <==

   Number of roots    =         1
   Preconditioning    =    JACOBI
   Convergence cutoff =     1E-06
   Maximum iterations =       100

  ==> CPHFRHamiltonian (by Rob Parrish) <== 

  ==> DiskDFJK: Density-Fitted J/K Matrices <==

    J tasked:                  Yes
    K tasked:                  Yes
    wK tasked:                  No
    OpenMP threads:             16
    Integrals threads:          16
    Memory (MB):               375
    Algorithm:                Core
    Integral Cache:           NONE
    Schwarz Cutoff:          1E-12
    Fitting Condition:       1E-12

   => Auxiliary Basis Set <=

  Basis Set: (6-31+G* AUX)
    Blend: HEAVY-AUG-CC-PVDZ-JKFIT
    Number of shells: 315
    Number of basis function: 1084
    Number of Cartesian functions: 1084
    Spherical Harmonics?: false
    Max angular momentum: 3

  ==> CPHF Iterations <==

  => Iterations <=

             Iter  Converged  Remaining    Residual
  CGR           1          0          1   1.414E-01
  CGR           2          0          1   3.543E-02
  CGR           3          0          1   1.428E-02
  CGR           4          0          1   3.941E-03
  CGR           5          0          1   1.174E-03
  CGR           6          0          1   4.255E-04
  CGR           7          0          1   1.277E-04
  CGR           8          0          1   3.836E-05
  CGR           9          0          1   1.470E-05
  CGR          10          0          1   5.938E-06
  CGR          11          0          1   3.088E-06
  CGR          12          0          1   1.100E-06
  CGR          13          1          0   4.120E-07

    CGRSolver converged.

	-----------------------------------------------------------
	 ==================> DF-MP2 Energies <==================== 
	-----------------------------------------------------------
	 Reference Energy          =    -509.4784078008752886 [Eh]
	 Singles Energy            =      -0.0000000000000000 [Eh]
	 Same-Spin Energy          =      -0.3940980066935591 [Eh]
	 Opposite-Spin Energy      =      -1.0587244201660100 [Eh]
	 Correlation Energy        =      -1.4528224268595691 [Eh]
	 Total Energy              =    -510.9312302277348294 [Eh]
	-----------------------------------------------------------
	 ================> DF-SCS-MP2 Energies <================== 
	-----------------------------------------------------------
	 SCS Same-Spin Scale       =       0.3333333333333333 [-]
	 SCS Opposite-Spin Scale   =       1.2000000000000000 [-]
	 SCS Same-Spin Energy      =      -0.1313660022311864 [Eh]
	 SCS Opposite-Spin Energy  =      -1.2704693041992119 [Eh]
	 SCS Correlation Energy    =      -1.4018353064303983 [Eh]
	 SCS Total Energy          =    -510.8802431073056596 [Eh]
	-----------------------------------------------------------



Properties will be evaluated at   0.000000,   0.000000,   0.000000 [a0]

Properties computed using the MP2 density matrix

  Nuclear Dipole Moment: [e a0]
     X:     3.9369      Y:     4.7257      Z:    -2.3416

  Electronic Dipole Moment: [e a0]
     X:    -1.4570      Y:    -4.3435      Z:     1.7055

  Dipole Moment: [e a0]
     X:     2.4799      Y:     0.3822      Z:    -0.6361     Total:     2.5886

  Dipole Moment: [D]
     X:     6.3034      Y:     0.9714      Z:    -1.6169     Total:     6.5796

  Quadrupole Moment: [D A]
    XX:   -62.4192     YY:   -53.4412     ZZ:   -56.8445
    XY:     1.5591     XZ:     2.3675     YZ:    -1.0972

  Traceless Quadrupole Moment: [D A]
    XX:    -4.8509     YY:     4.1271     ZZ:     0.7238
    XY:     1.5591     XZ:     2.3675     YZ:    -1.0972


    Psi4 stopped on: Friday, 15 February 2019 12:45PM
    Psi4 wall time for execution: 0:00:11.09

*** Psi4 exiting successfully. Buy a developer a beer!
