
    -----------------------------------------------------------------------
          Psi4: An Open-Source Ab Initio Electronic Structure Package
                               Psi4 1.2.1 release

                         Git: Rev {HEAD} 406f4de 


    R. M. Parrish, L. A. Burns, D. G. A. Smith, A. C. Simmonett,
    A. E. DePrince III, E. G. Hohenstein, U. Bozkaya, A. Yu. Sokolov,
    R. Di Remigio, R. M. Richard, J. F. Gonthier, A. M. James,
    H. R. McAlexander, A. Kumar, M. Saitow, X. Wang, B. P. Pritchard,
    P. Verma, H. F. Schaefer III, K. Patkowski, R. A. King, E. F. Valeev,
    F. A. Evangelista, J. M. Turney, T. D. Crawford, and C. D. Sherrill,
    J. Chem. Theory Comput. 13(7) pp 3185--3197 (2017).
    (doi: 10.1021/acs.jctc.7b00174)


                         Additional Contributions by
    P. Kraus, H. Kruse, M. H. Lechner, M. C. Schieber, and R. A. Shaw

    -----------------------------------------------------------------------


    Psi4 started on: Friday, 29 March 2019 12:17PM

    Process ID: 6446
    Host:       localhost.localdomain
    PSIDATADIR: /root/psi4conda/share/psi4
    Memory:     500.0 MiB
    Threads:    1
    
  ==> Input File <==

--------------------------------------------------------------------------
molecule{
0 1
  C   0.21272688582111      0.36897449070993     -0.05593053342560
  O   -1.05071221119074      0.25670735711839     -0.11952560400400
  O   1.08795248414136      1.10396924856408     -0.13698280940979
  H   0.44650950316546     -0.95918578579766      0.21261454282177
  H   -0.69647666193719     -0.77046531059475      0.09982440401762 
}

set{
   basis def2-svp
   freeze_core True
   opt_type ts
}


set_num_threads(32)
optimize('b3lyp')
--------------------------------------------------------------------------
  Threads set to 32 by Python driver.
gradient() will perform analytic gradient computation.

*** tstart() called on localhost.localdomain
*** at Fri Mar 29 12:17:21 2019

   => Loading Basis Set <=

    Name: DEF2-SVP
    Role: ORBITAL
    Keyword: BASIS
    atoms 1   entry C          line    90 file /root/psi4conda/share/psi4/basis/def2-svp.gbs 
    atoms 2-3 entry O          line   130 file /root/psi4conda/share/psi4/basis/def2-svp.gbs 
    atoms 4-5 entry H          line    15 file /root/psi4conda/share/psi4/basis/def2-svp.gbs 


         ---------------------------------------------------------
                                   SCF
            by Justin Turney, Rob Parrish, Andy Simmonett
                             and Daniel Smith
                              RKS Reference
                       32 Threads,    500 MiB Core
         ---------------------------------------------------------

  ==> Geometry <==

    Molecular point group: c1
    Full point group: C1

    Geometry (in Angstrom), charge = 0, multiplicity = 1:

       Center              X                  Y                   Z               Mass       
    ------------   -----------------  -----------------  -----------------  -----------------
         C            0.149767983965    -0.162449477039     0.040995155618    12.000000000000
         O           -1.113671113047    -0.274716610631    -0.022599914961    15.994914619560
         O            1.024993582285     0.572545280815    -0.040057120366    15.994914619560
         H            0.383550601309    -1.490609753547     0.309540231865     1.007825032070
         H           -0.759435563793    -1.301889278344     0.196750093061     1.007825032070

  Running in c1 symmetry.

  Rotational constants: A =      3.63396  B =      0.38395  C =      0.34726 [cm^-1]
  Rotational constants: A = 108943.41382  B =  11510.41148  C =  10410.49147 [MHz]
  Nuclear repulsion =   71.366046387863392

  Charge       = 0
  Multiplicity = 1
  Electrons    = 24
  Nalpha       = 12
  Nbeta        = 12

  ==> Algorithm <==

  SCF Algorithm Type is DF.
  DIIS enabled.
  MOM disabled.
  Fractional occupation disabled.
  Guess Type is SAD.
  Energy threshold   = 1.00e-08
  Density threshold  = 1.00e-08
  Integral threshold = 0.00e+00

  ==> Primary Basis <==

  Basis Set: DEF2-SVP
    Blend: DEF2-SVP
    Number of shells: 24
    Number of basis function: 52
    Number of Cartesian functions: 55
    Spherical Harmonics?: true
    Max angular momentum: 2

  ==> DFT Potential <==

   => Composite Functional: B3LYP <= 

    B3LYP Hyb-GGA Exchange-Correlation Functional

    P. J. Stephens, F. J. Devlin, C. F. Chabalowski, and M. J. Frisch, J. Phys. Chem. 98, 11623 (1994)

    Deriv               =              1
    GGA                 =           TRUE
    Meta                =          FALSE

    Exchange Hybrid     =           TRUE
    MP2 Hybrid          =          FALSE

   => Exchange Functionals <=

    0.0800   Slater exchange
    0.7200         Becke 88

   => Exact (HF) Exchange <=

    0.2000               HF 

   => Correlation Functionals <=

    0.1900   Vosko, Wilk & Nusair (VWN5_RPA)
    0.8100   Lee, Yang & Parr

   => Molecular Quadrature <=

    Radial Scheme       =       TREUTLER
    Pruning Scheme      =           FLAT
    Nuclear Scheme      =       TREUTLER

    BS radius alpha     =              1
    Pruning alpha       =              1
    Radial Points       =             75
    Spherical Points    =            302
    Total Points        =         109985
    Total Blocks        =            893
    Max Points          =            256
    Max Functions       =             52

   => Loading Basis Set <=

    Name: (DEF2-SVP AUX)
    Role: JKFIT
    Keyword: DF_BASIS_SCF
    atoms 1   entry C          line   203 file /root/psi4conda/share/psi4/basis/def2-svp-jkfit.gbs 
    atoms 2-3 entry O          line   323 file /root/psi4conda/share/psi4/basis/def2-svp-jkfit.gbs 
    atoms 4-5 entry H          line    23 file /root/psi4conda/share/psi4/basis/def2-svp-jkfit.gbs 

  ==> Pre-Iterations <==

   -------------------------------------------------------
    Irrep   Nso     Nmo     Nalpha   Nbeta   Ndocc  Nsocc
   -------------------------------------------------------
     A         52      52       0       0       0       0
   -------------------------------------------------------
    Total      52      52      12      12      12       0
   -------------------------------------------------------

  ==> Integral Setup <==

  DFHelper Memory: AOs need 0.008 [GiB]; user supplied 0.366 [GiB]. Using in-core AOs.

  ==> MemDFJK: Density-Fitted J/K Matrices <==

    J tasked:                   Yes
    K tasked:                   Yes
    wK tasked:                   No
    OpenMP threads:              32
    Memory (MB):                375
    Algorithm:                 Core
    Schwarz Cutoff:           1E-12
    Mask sparsity (%):       0.0740
    Fitting Condition:        1E-12

   => Auxiliary Basis Set <=

  Basis Set: (DEF2-SVP AUX)
    Blend: DEF2-SVP-JKFIT
    Number of shells: 87
    Number of basis function: 265
    Number of Cartesian functions: 315
    Spherical Harmonics?: true
    Max angular momentum: 4

  Minimum eigenvalue in the overlap matrix is 9.8343523402E-03.
  Using Symmetric Orthogonalization.

  SCF Guess: Superposition of Atomic Densities via on-the-fly atomic UHF.

  ==> Iterations <==

                           Total Energy        Delta E     RMS |[F,P]|

   @DF-RKS iter   0:  -190.06098736689884   -1.90061e+02   1.96368e-01 
   @DF-RKS iter   1:  -189.37576318259750    6.85224e-01   3.56212e-02 
   @DF-RKS iter   2:  -188.72066869810422    6.55094e-01   9.82694e-02 DIIS
   @DF-RKS iter   3:  -189.50155132615996   -7.80883e-01   1.34945e-02 DIIS
   @DF-RKS iter   4:  -189.51771414998652   -1.61628e-02   5.44838e-03 DIIS
   @DF-RKS iter   5:  -189.52113238217069   -3.41823e-03   5.53245e-04 DIIS
   @DF-RKS iter   6:  -189.52117479459091   -4.24124e-05   1.12033e-04 DIIS
   @DF-RKS iter   7:  -189.52117556242672   -7.67836e-07   3.92924e-05 DIIS
   @DF-RKS iter   8:  -189.52117563974326   -7.73165e-08   8.87221e-06 DIIS
   @DF-RKS iter   9:  -189.52117564930282   -9.55956e-09   1.57510e-06 DIIS
   @DF-RKS iter  10:  -189.52117564940585   -1.03029e-10   1.43240e-07 DIIS
   @DF-RKS iter  11:  -189.52117564940997   -4.12115e-12   2.81959e-08 DIIS
   @DF-RKS iter  12:  -189.52117564941008   -1.13687e-13   3.69492e-09 DIIS

  ==> Post-Iterations <==

    Orbital Energies [Eh]
    ---------------------

    Doubly Occupied:                                                      

       1A    -19.208269     2A    -19.181599     3A    -10.373833  
       4A     -1.151627     5A     -1.092783     6A     -0.619001  
       7A     -0.573556     8A     -0.503085     9A     -0.501454  
      10A     -0.411080    11A     -0.365880    12A     -0.303894  

    Virtual:                                                              

      13A     -0.023395    14A      0.004291    15A      0.104470  
      16A      0.174611    17A      0.311109    18A      0.393257  
      19A      0.413454    20A      0.471283    21A      0.533687  
      22A      0.569761    23A      0.700029    24A      0.845630  
      25A      0.900929    26A      0.902410    27A      1.015068  
      28A      1.016843    29A      1.124664    30A      1.146994  
      31A      1.319606    32A      1.355932    33A      1.469824  
      34A      1.497556    35A      1.572097    36A      1.625225  
      37A      1.710745    38A      1.769690    39A      2.003721  
      40A      2.184809    41A      2.281431    42A      2.598431  
      43A      2.671722    44A      2.712228    45A      2.773503  
      46A      2.845952    47A      3.069225    48A      3.282750  
      49A      3.348222    50A      3.419970    51A      3.627667  
      52A      3.771592  

    Final Occupation by Irrep:
              A 
    DOCC [    12 ]

  Energy converged.

  @DF-RKS Final Energy:  -189.52117564941008

   => Energetics <=

    Nuclear Repulsion Energy =             71.3660463878633919
    One-Electron Energy =                -399.6735578660822057
    Two-Electron Energy =                 157.6264688979842674
    DFT Exchange-Correlation Energy =     -18.8401330691755291
    Empirical Dispersion Energy =           0.0000000000000000
    VV10 Nonlocal Energy =                  0.0000000000000000
    Total Energy =                       -189.5211756494100825



Properties will be evaluated at   0.000000,   0.000000,   0.000000 [a0]

Properties computed using the SCF density matrix

  Nuclear Dipole Moment: [e a0]
     X:    -0.3528      Y:    -2.6165      Z:     0.4743

  Electronic Dipole Moment: [e a0]
     X:     0.0508      Y:     1.9539      Z:    -0.3685

  Dipole Moment: [e a0]
     X:    -0.3020      Y:    -0.6626      Z:     0.1058     Total:     0.7358

  Dipole Moment: [D]
     X:    -0.7676      Y:    -1.6841      Z:     0.2690     Total:     1.8702


*** tstop() called on localhost.localdomain at Fri Mar 29 12:17:23 2019
Module time:
	user time   =      39.10 seconds =       0.65 minutes
	system time =       2.65 seconds =       0.04 minutes
	total time  =          2 seconds =       0.03 minutes
Total time:
	user time   =      39.10 seconds =       0.65 minutes
	system time =       2.65 seconds =       0.04 minutes
	total time  =          2 seconds =       0.03 minutes

*** tstart() called on localhost.localdomain
*** at Fri Mar 29 12:17:23 2019


         ------------------------------------------------------------
                                   SCF GRAD                          
                          Rob Parrish, Justin Turney,                
                       Andy Simmonett, and Alex Sokolov              
         ------------------------------------------------------------

  ==> Geometry <==

    Molecular point group: c1
    Full point group: C1

    Geometry (in Angstrom), charge = 0, multiplicity = 1:

       Center              X                  Y                   Z               Mass       
    ------------   -----------------  -----------------  -----------------  -----------------
         C            0.149767983965    -0.162449477039     0.040995155618    12.000000000000
         O           -1.113671113047    -0.274716610631    -0.022599914961    15.994914619560
         O            1.024993582285     0.572545280815    -0.040057120366    15.994914619560
         H            0.383550601309    -1.490609753547     0.309540231865     1.007825032070
         H           -0.759435563793    -1.301889278344     0.196750093061     1.007825032070

  Nuclear repulsion =   71.366046387863392

  ==> Basis Set <==

  Basis Set: DEF2-SVP
    Blend: DEF2-SVP
    Number of shells: 24
    Number of basis function: 52
    Number of Cartesian functions: 55
    Spherical Harmonics?: true
    Max angular momentum: 2

  ==> DFJKGrad: Density-Fitted SCF Gradients <==

    Gradient:                    1
    J tasked:                  Yes
    K tasked:                  Yes
    wK tasked:                  No
    OpenMP threads:             32
    Integrals threads:          32
    Memory (MB):               375
    Schwarz Cutoff:          0E+00
    Fitting Condition:       1E-12

   => Auxiliary Basis Set <=

  Basis Set: (DEF2-SVP AUX)
    Blend: DEF2-SVP-JKFIT
    Number of shells: 87
    Number of basis function: 265
    Number of Cartesian functions: 315
    Spherical Harmonics?: true
    Max angular momentum: 4

  ==> DFT Potential <==

   => Composite Functional: B3LYP <= 

    B3LYP Hyb-GGA Exchange-Correlation Functional

    P. J. Stephens, F. J. Devlin, C. F. Chabalowski, and M. J. Frisch, J. Phys. Chem. 98, 11623 (1994)

    Deriv               =              1
    GGA                 =           TRUE
    Meta                =          FALSE

    Exchange Hybrid     =           TRUE
    MP2 Hybrid          =          FALSE

   => Exchange Functionals <=

    0.0800   Slater exchange
    0.7200         Becke 88

   => Exact (HF) Exchange <=

    0.2000               HF 

   => Correlation Functionals <=

    0.1900   Vosko, Wilk & Nusair (VWN5_RPA)
    0.8100   Lee, Yang & Parr

   => Molecular Quadrature <=

    Radial Scheme       =       TREUTLER
    Pruning Scheme      =           FLAT
    Nuclear Scheme      =       TREUTLER

    BS radius alpha     =              1
    Pruning alpha       =              1
    Radial Points       =             75
    Spherical Points    =            302
    Total Points        =         109985
    Total Blocks        =            893
    Max Points          =            256
    Max Functions       =             52


  -Total Gradient:
     Atom            X                  Y                   Z
    ------   -----------------  -----------------  -----------------
       1       -0.021611276927     0.080126620976    -0.016705943984
       2        0.029838722379     0.018576115085    -0.001529390136
       3       -0.035098778853    -0.052943972687     0.007717820482
       4       -0.029384262028    -0.022809677921     0.002365877163
       5        0.056304614521    -0.022923332626     0.008150030563


*** tstop() called on localhost.localdomain at Fri Mar 29 12:17:25 2019
Module time:
	user time   =      38.83 seconds =       0.65 minutes
	system time =       2.91 seconds =       0.05 minutes
	total time  =          2 seconds =       0.03 minutes
Total time:
	user time   =      78.01 seconds =       1.30 minutes
	system time =       5.56 seconds =       0.09 minutes
	total time  =          4 seconds =       0.07 minutes

			-----------------------------------------
			 OPTKING 2.0: for geometry optimizations 
			  - R.A. King,  Bethel University        
			-----------------------------------------

	Internal coordinates to be generated automatically.
	Detected frag 1 with atoms:  1 2 3 4 5
	---Fragment 1 Bond Connectivity---
	 1 : 2 3 4
	 2 : 1 5
	 3 : 1
	 4 : 1
	 5 : 2

	---Fragment 1 Geometry and Gradient---
	 C           0.2830204732       -0.3069850220        0.0774696169
	 O          -2.1045334058       -0.5191391582       -0.0427076499
	 O           1.9369571585        1.0819537794       -0.0756969872
	 H           0.7248055946       -2.8168442052        0.5849462653
	 H          -1.4351252311       -2.4602141914        0.3718037925
	            -0.0216112769        0.0801266210       -0.0167059440
	             0.0298387224        0.0185761151       -0.0015293901
	            -0.0350987789       -0.0529439727        0.0077178205
	            -0.0293842620       -0.0228096779        0.0023658772
	             0.0563046145       -0.0229233326        0.0081500306

	Previous optimization step data not found.  Starting new optimization.

	---Fragment 1 Intrafragment Coordinates---
	 - Coordinate -           - BOHR/RAD -       - ANG/DEG -
	 R(1,2)           =         2.399972	       1.270010
	 R(1,3)           =         2.165206	       1.145778
	 R(1,4)           =         2.598480	       1.375057
	 R(2,5)           =         2.094684	       1.108459
	 B(1,2,5)         =         1.322333	      75.764128
	 B(2,1,3)         =         2.520223	     144.398115
	 B(2,1,4)         =         1.664466	      95.366872
	 B(3,1,4)         =         2.098497	     120.235013
	 D(3,1,2,5)       =         3.141593	     180.000000
	 D(4,1,2,5)       =        -0.000000	      -0.000000

	Current energy   :      -189.5211756494

	Generating empirical Hessian (Schlegel '84) for each fragment.
	Taking PRFO optimization step.
	Maximizing along 1 lowest eigenvalue of Hessian.

 RFO min eigenvalues
 -0.084059  0.022141  0.022141  0.153093  0.160000  0.193410  0.250943  0.334574
  0.772443  1.378503

 RFO max eigenvalues
 -0.000000  0.000000
	Change in coordinate exceeds step limit of    0.50000.
	Scaling displacements by    0.19389
	|RFO target step|  :        0.5000000000
	RFO gradient       :       -0.0325964157
	RFO hessian        :        0.0089524843
	Projected Delta(E) :       -0.0121433178

	Back-transformation to cartesian coordinates...
	Successfully converged to displaced geometry.

	--- Internal Coordinate Step in ANG or DEG, aJ/ANG or AJ/DEG ---
	 ---------------------------------------------------------------------------
	   Coordinate                Previous        Force       Change         New 
	   ----------                --------       ------       ------       ------
	    1 R(1,2)          =      1.270010     0.705454     0.010377     1.280387
	    2 R(1,3)          =      1.145778     0.505290     0.004311     1.150088
	    3 R(1,4)          =      1.375057    -0.144176    -0.007576     1.367481
	    4 R(2,5)          =      1.108459    -0.336599    -0.010182     1.098277
	    5 B(1,2,5)        =     75.764128     0.007292     4.361777    80.125905
	    6 B(2,1,3)        =    144.398115    -0.004177    -2.005562   142.392553
	    7 B(2,1,4)        =     95.366872     0.005343     2.949363    98.316235
	    8 B(3,1,4)        =    120.235013    -0.001166    -0.943801   119.291212
	    9 D(3,1,2,5)      =    180.000000     0.000000     0.000000   180.000000
	   10 D(4,1,2,5)      =      0.000000    -0.000000     0.000000     0.000000
	 ---------------------------------------------------------------------------
	Successfully symmetrized geometry.

  ==> Convergence Check <==

  Measures of convergence in internal coordinates in au.
  Criteria marked as inactive (o), active & met (*), and active & unmet ( ).
  --------------------------------------------------------------------------------------------- ~
   Step     Total Energy     Delta E     MAX Force     RMS Force      MAX Disp      RMS Disp    ~
  --------------------------------------------------------------------------------------------- ~
    Convergence Criteria    1.00e-06 *    3.00e-04 *             o    1.20e-03 *             o  ~
  --------------------------------------------------------------------------------------------- ~
      1    -189.52117565   -1.90e+02      9.58e-02      5.52e-02 o    7.61e-02      3.31e-02 o  ~
  ---------------------------------------------------------------------------------------------

	Writing optimization data to binary file.
	Structure for next step:
	Cartesian Geometry (in Angstrom)
	    C     0.1662978817  -0.1727087082   0.0440596391
	    O    -1.1086289596  -0.2698144583  -0.0231939928
	    O     1.0282275871   0.5838466330  -0.0419908735
	    H     0.4505715333  -1.4830791262   0.3126138929
	    H    -0.8512625518  -1.3153641791   0.1931397795
			--------------------------
			 OPTKING Finished Execution 
			--------------------------

    Structure for next step:
    Molecular point group: c1
    Full point group: C1

    Geometry (in Angstrom), charge = 0, multiplicity = 1:

    C            0.159652259098    -0.175536026008     0.044150921474
    O           -1.115274582193    -0.272641776074    -0.023102710382
    O            1.021581964467     0.581019315222    -0.041899591097
    H            0.443925910739    -1.485906443970     0.312705175331
    H           -0.857908174416    -1.318191496885     0.193231061920

gradient() will perform analytic gradient computation.

*** tstart() called on localhost.localdomain
*** at Fri Mar 29 12:17:25 2019

   => Loading Basis Set <=

    Name: DEF2-SVP
    Role: ORBITAL
    Keyword: BASIS
    atoms 1   entry C          line    90 file /root/psi4conda/share/psi4/basis/def2-svp.gbs 
    atoms 2-3 entry O          line   130 file /root/psi4conda/share/psi4/basis/def2-svp.gbs 
    atoms 4-5 entry H          line    15 file /root/psi4conda/share/psi4/basis/def2-svp.gbs 


         ---------------------------------------------------------
                                   SCF
            by Justin Turney, Rob Parrish, Andy Simmonett
                             and Daniel Smith
                              RKS Reference
                       32 Threads,    500 MiB Core
         ---------------------------------------------------------

  ==> Geometry <==

    Molecular point group: c1
    Full point group: C1

    Geometry (in Angstrom), charge = 0, multiplicity = 1:

       Center              X                  Y                   Z               Mass       
    ------------   -----------------  -----------------  -----------------  -----------------
         C            0.159652259098    -0.175536026008     0.044150921474    12.000000000000
         O           -1.115274582193    -0.272641776074    -0.023102710382    15.994914619560
         O            1.021581964467     0.581019315222    -0.041899591097    15.994914619560
         H            0.443925910739    -1.485906443970     0.312705175331     1.007825032070
         H           -0.857908174416    -1.318191496885     0.193231061920     1.007825032070

  Running in c1 symmetry.

  Rotational constants: A =      3.51437  B =      0.38167  C =      0.34428 [cm^-1]
  Rotational constants: A = 105358.17115  B =  11442.13179  C =  10321.22391 [MHz]
  Nuclear repulsion =   70.921735387188320

  Charge       = 0
  Multiplicity = 1
  Electrons    = 24
  Nalpha       = 12
  Nbeta        = 12

  ==> Algorithm <==

  SCF Algorithm Type is DF.
  DIIS enabled.
  MOM disabled.
  Fractional occupation disabled.
  Guess Type is READ.
  Energy threshold   = 1.00e-08
  Density threshold  = 1.00e-08
  Integral threshold = 0.00e+00

  ==> Primary Basis <==

  Basis Set: DEF2-SVP
    Blend: DEF2-SVP
    Number of shells: 24
    Number of basis function: 52
    Number of Cartesian functions: 55
    Spherical Harmonics?: true
    Max angular momentum: 2

  ==> DFT Potential <==

   => Composite Functional: B3LYP <= 

    B3LYP Hyb-GGA Exchange-Correlation Functional

    P. J. Stephens, F. J. Devlin, C. F. Chabalowski, and M. J. Frisch, J. Phys. Chem. 98, 11623 (1994)

    Deriv               =              1
    GGA                 =           TRUE
    Meta                =          FALSE

    Exchange Hybrid     =           TRUE
    MP2 Hybrid          =          FALSE

   => Exchange Functionals <=

    0.0800   Slater exchange
    0.7200         Becke 88

   => Exact (HF) Exchange <=

    0.2000               HF 

   => Correlation Functionals <=

    0.1900   Vosko, Wilk & Nusair (VWN5_RPA)
    0.8100   Lee, Yang & Parr

   => Molecular Quadrature <=

    Radial Scheme       =       TREUTLER
    Pruning Scheme      =           FLAT
    Nuclear Scheme      =       TREUTLER

    BS radius alpha     =              1
    Pruning alpha       =              1
    Radial Points       =             75
    Spherical Points    =            302
    Total Points        =         109997
    Total Blocks        =            893
    Max Points          =            256
    Max Functions       =             52

   => Loading Basis Set <=

    Name: (DEF2-SVP AUX)
    Role: JKFIT
    Keyword: DF_BASIS_SCF
    atoms 1   entry C          line   203 file /root/psi4conda/share/psi4/basis/def2-svp-jkfit.gbs 
    atoms 2-3 entry O          line   323 file /root/psi4conda/share/psi4/basis/def2-svp-jkfit.gbs 
    atoms 4-5 entry H          line    23 file /root/psi4conda/share/psi4/basis/def2-svp-jkfit.gbs 

  Reading orbitals from file 180, no projection.

  ==> Pre-Iterations <==

   -------------------------------------------------------
    Irrep   Nso     Nmo     Nalpha   Nbeta   Ndocc  Nsocc
   -------------------------------------------------------
     A         52      52       0       0       0       0
   -------------------------------------------------------
    Total      52      52      12      12      12       0
   -------------------------------------------------------

  ==> Integral Setup <==

  DFHelper Memory: AOs need 0.008 [GiB]; user supplied 0.366 [GiB]. Using in-core AOs.

  ==> MemDFJK: Density-Fitted J/K Matrices <==

    J tasked:                   Yes
    K tasked:                   Yes
    wK tasked:                   No
    OpenMP threads:              32
    Memory (MB):                375
    Algorithm:                 Core
    Schwarz Cutoff:           1E-12
    Mask sparsity (%):       0.0740
    Fitting Condition:        1E-12

   => Auxiliary Basis Set <=

  Basis Set: (DEF2-SVP AUX)
    Blend: DEF2-SVP-JKFIT
    Number of shells: 87
    Number of basis function: 265
    Number of Cartesian functions: 315
    Spherical Harmonics?: true
    Max angular momentum: 4

  Minimum eigenvalue in the overlap matrix is 1.0461560443E-02.
  Using Symmetric Orthogonalization.

  SCF Guess: Orbitals guess was supplied from a previous computation.

  ==> Iterations <==

                           Total Energy        Delta E     RMS |[F,P]|

   @DF-RKS iter   0:  -189.51823101748104   -1.89518e+02   7.35583e-03 
   @DF-RKS iter   1:  -189.53569286624008   -1.74618e-02   3.39058e-03 
   @DF-RKS iter   2:  -189.53290381330808    2.78905e-03   7.85064e-03 DIIS
   @DF-RKS iter   3:  -189.53667639330118   -3.77258e-03   8.65113e-04 DIIS
   @DF-RKS iter   4:  -189.53673060784624   -5.42145e-05   4.15059e-04 DIIS
   @DF-RKS iter   5:  -189.53673697628284   -6.36844e-06   7.01659e-05 DIIS
   @DF-RKS iter   6:  -189.53673754468880   -5.68406e-07   1.89971e-05 DIIS
   @DF-RKS iter   7:  -189.53673759817499   -5.34862e-08   1.74076e-06 DIIS
   @DF-RKS iter   8:  -189.53673759865785   -4.82856e-10   4.12494e-07 DIIS
   @DF-RKS iter   9:  -189.53673759867357   -1.57172e-11   5.32432e-08 DIIS
   @DF-RKS iter  10:  -189.53673759867388   -3.12639e-13   4.26736e-09 DIIS

  ==> Post-Iterations <==

    Orbital Energies [Eh]
    ---------------------

    Doubly Occupied:                                                      

       1A    -19.215374     2A    -19.172885     3A    -10.364847  
       4A     -1.144684     5A     -1.083523     6A     -0.604113  
       7A     -0.581178     8A     -0.496694     9A     -0.495040  
      10A     -0.412636    11A     -0.363902    12A     -0.299554  

    Virtual:                                                              

      13A     -0.023506    14A      0.005586    15A      0.092936  
      16A      0.184014    17A      0.320640    18A      0.387142  
      19A      0.419115    20A      0.478422    21A      0.523079  
      22A      0.581151    23A      0.696306    24A      0.848401  
      25A      0.889299    26A      0.902839    27A      1.011095  
      28A      1.021472    29A      1.121750    30A      1.185063  
      31A      1.299845    32A      1.356081    33A      1.457965  
      34A      1.479086    35A      1.565590    36A      1.585672  
      37A      1.740395    38A      1.787372    39A      1.977328  
      40A      2.056147    41A      2.297285    42A      2.603908  
      43A      2.609536    44A      2.677640    45A      2.773462  
      46A      2.845933    47A      3.076361    48A      3.254536  
      49A      3.331321    50A      3.403013    51A      3.622532  
      52A      3.761672  

    Final Occupation by Irrep:
              A 
    DOCC [    12 ]

  Energy converged.

  @DF-RKS Final Energy:  -189.53673759867388

   => Energetics <=

    Nuclear Repulsion Energy =             70.9217353871883205
    One-Electron Energy =                -398.9272250954065839
    Two-Electron Energy =                 157.2968445217984765
    DFT Exchange-Correlation Energy =     -18.8280924122540938
    Empirical Dispersion Energy =           0.0000000000000000
    VV10 Nonlocal Energy =                  0.0000000000000000
    Total Energy =                       -189.5367375986738807



Properties will be evaluated at   0.000000,   0.000000,   0.000000 [a0]

Properties computed using the SCF density matrix

  Nuclear Dipole Moment: [e a0]
     X:    -0.3885      Y:    -2.6273      Z:     0.4740

  Electronic Dipole Moment: [e a0]
     X:    -0.0137      Y:     1.8723      Z:    -0.3573

  Dipole Moment: [e a0]
     X:    -0.4023      Y:    -0.7550      Z:     0.1167     Total:     0.8634

  Dipole Moment: [D]
     X:    -1.0224      Y:    -1.9190      Z:     0.2965     Total:     2.1945


*** tstop() called on localhost.localdomain at Fri Mar 29 12:17:26 2019
Module time:
	user time   =      21.81 seconds =       0.36 minutes
	system time =       1.34 seconds =       0.02 minutes
	total time  =          1 seconds =       0.02 minutes
Total time:
	user time   =     100.45 seconds =       1.67 minutes
	system time =       6.95 seconds =       0.12 minutes
	total time  =          5 seconds =       0.08 minutes

*** tstart() called on localhost.localdomain
*** at Fri Mar 29 12:17:26 2019


         ------------------------------------------------------------
                                   SCF GRAD                          
                          Rob Parrish, Justin Turney,                
                       Andy Simmonett, and Alex Sokolov              
         ------------------------------------------------------------

  ==> Geometry <==

    Molecular point group: c1
    Full point group: C1

    Geometry (in Angstrom), charge = 0, multiplicity = 1:

       Center              X                  Y                   Z               Mass       
    ------------   -----------------  -----------------  -----------------  -----------------
         C            0.159652259098    -0.175536026008     0.044150921474    12.000000000000
         O           -1.115274582193    -0.272641776074    -0.023102710382    15.994914619560
         O            1.021581964467     0.581019315222    -0.041899591097    15.994914619560
         H            0.443925910739    -1.485906443970     0.312705175331     1.007825032070
         H           -0.857908174416    -1.318191496885     0.193231061920     1.007825032070

  Nuclear repulsion =   70.921735387188320

  ==> Basis Set <==

  Basis Set: DEF2-SVP
    Blend: DEF2-SVP
    Number of shells: 24
    Number of basis function: 52
    Number of Cartesian functions: 55
    Spherical Harmonics?: true
    Max angular momentum: 2

  ==> DFJKGrad: Density-Fitted SCF Gradients <==

    Gradient:                    1
    J tasked:                  Yes
    K tasked:                  Yes
    wK tasked:                  No
    OpenMP threads:             32
    Integrals threads:          32
    Memory (MB):               375
    Schwarz Cutoff:          0E+00
    Fitting Condition:       1E-12

   => Auxiliary Basis Set <=

  Basis Set: (DEF2-SVP AUX)
    Blend: DEF2-SVP-JKFIT
    Number of shells: 87
    Number of basis function: 265
    Number of Cartesian functions: 315
    Spherical Harmonics?: true
    Max angular momentum: 4

  ==> DFT Potential <==

   => Composite Functional: B3LYP <= 

    B3LYP Hyb-GGA Exchange-Correlation Functional

    P. J. Stephens, F. J. Devlin, C. F. Chabalowski, and M. J. Frisch, J. Phys. Chem. 98, 11623 (1994)

    Deriv               =              1
    GGA                 =           TRUE
    Meta                =          FALSE

    Exchange Hybrid     =           TRUE
    MP2 Hybrid          =          FALSE

   => Exchange Functionals <=

    0.0800   Slater exchange
    0.7200         Becke 88

   => Exact (HF) Exchange <=

    0.2000               HF 

   => Correlation Functionals <=

    0.1900   Vosko, Wilk & Nusair (VWN5_RPA)
    0.8100   Lee, Yang & Parr

   => Molecular Quadrature <=

    Radial Scheme       =       TREUTLER
    Pruning Scheme      =           FLAT
    Nuclear Scheme      =       TREUTLER

    BS radius alpha     =              1
    Pruning alpha       =              1
    Radial Points       =             75
    Spherical Points    =            302
    Total Points        =         109997
    Total Blocks        =            893
    Max Points          =            256
    Max Functions       =             52


  -Total Gradient:
     Atom            X                  Y                   Z
    ------   -----------------  -----------------  -----------------
       1       -0.033912407714     0.093149096483    -0.020012109658
       2        0.022728393945     0.040378156609    -0.006157689654
       3       -0.026941463687    -0.054154068693     0.008496748172
       4       -0.015410890571    -0.035468658514     0.005715302144
       5        0.053569551106    -0.043867626715     0.011952956519


*** tstop() called on localhost.localdomain at Fri Mar 29 12:17:28 2019
Module time:
	user time   =      38.91 seconds =       0.65 minutes
	system time =       3.20 seconds =       0.05 minutes
	total time  =          2 seconds =       0.03 minutes
Total time:
	user time   =     139.42 seconds =       2.32 minutes
	system time =      10.15 seconds =       0.17 minutes
	total time  =          7 seconds =       0.12 minutes

			-----------------------------------------
			 OPTKING 2.0: for geometry optimizations 
			  - R.A. King,  Bethel University        
			-----------------------------------------

	Previous internal coordinate definitions found.
	---Fragment 1 Geometry and Gradient---
	 C           0.3016990462       -0.3317150156        0.0834331501
	 O          -2.1075635233       -0.5152182892       -0.0436577955
	 O           1.9305101351        1.0979673837       -0.0791787523
	 H           0.8388983946       -2.8079562382        0.5909271417
	 H          -1.6212114968       -2.4910209198        0.3651537874
	            -0.0339124077        0.0931490965       -0.0200121097
	             0.0227283939        0.0403781566       -0.0061576897
	            -0.0269414637       -0.0541540687        0.0084967482
	            -0.0154108906       -0.0354686585        0.0057153021
	             0.0535695511       -0.0438676267        0.0119529565

	---Fragment 1 Intrafragment Coordinates---
	 - Coordinate -           - BOHR/RAD -       - ANG/DEG -
	 R(1,2)           =         2.419581	       1.280387
	 R(1,3)           =         2.173352	       1.150088
	 R(1,4)           =         2.584164	       1.367481
	 R(2,5)           =         2.075442	       1.098277
	 B(1,2,5)         =         1.398461	      80.125905
	 B(2,1,3)         =         2.485219	     142.392553
	 B(2,1,4)         =         1.715942	      98.316235
	 B(3,1,4)         =         2.082024	     119.291212
	 D(3,1,2,5)       =         3.141593	     180.000000
	 D(4,1,2,5)       =        -0.000000	      -0.000000

	Current energy   :      -189.5367375987

	Energy change for the previous step:
		Projected    :        -0.0121433178
		Actual       :        -0.0155619493

	Performing Bofill update.
	Previous computed or guess Hessian on step 1.
	Steps to be used in Hessian update: 1
	Taking PRFO optimization step.
	Maximizing along 1 lowest eigenvalue of Hessian.

 RFO min eigenvalues
 -0.021123  0.000000  0.022141  0.022141  0.157923  0.204662  0.250047  0.428379
  0.758558  1.369611

 RFO max eigenvalues
 -0.203130  0.075664
	Change in coordinate exceeds step limit of    0.50000.
	Scaling displacements by    0.76468
	|RFO target step|  :        0.5000000000
	RFO gradient       :        0.0834126476
	RFO hessian        :       -0.0643672561
	Projected Delta(E) :        0.0269283334

	Back-transformation to cartesian coordinates...
	Successfully converged to displaced geometry.

	--- Internal Coordinate Step in ANG or DEG, aJ/ANG or AJ/DEG ---
	 ---------------------------------------------------------------------------
	   Coordinate                Previous        Force       Change         New 
	   ----------                --------       ------       ------       ------
	    1 R(1,2)          =      1.280387     0.626126     0.013079     1.293466
	    2 R(1,3)          =      1.150088     0.465163     0.005444     1.155533
	    3 R(1,4)          =      1.367481    -0.262915     0.197796     1.565276
	    4 R(2,5)          =      1.098277    -0.466926     0.095269     1.193546
	    5 B(1,2,5)        =     80.125905     0.006559   -12.313406    67.812500
	    6 B(2,1,3)        =    142.392553    -0.004053     6.051202   148.443755
	    7 B(2,1,4)        =     98.316235     0.004248     1.809565   100.125800
	    8 B(3,1,4)        =    119.291212    -0.000195    -7.860767   111.430445
	    9 D(3,1,2,5)      =    180.000000     0.000000     0.000000   180.000000
	   10 D(4,1,2,5)      =      0.000000     0.000000     0.000000     0.000000
	 ---------------------------------------------------------------------------
	Successfully symmetrized geometry.

  ==> Convergence Check <==

  Measures of convergence in internal coordinates in au.
  Criteria marked as inactive (o), active & met (*), and active & unmet ( ).
  ---------------------------------------------------------------------------------------------
   Step     Total Energy     Delta E     MAX Force     RMS Force      MAX Disp      RMS Disp   
  ---------------------------------------------------------------------------------------------
    Convergence Criteria    1.00e-06 *    3.00e-04 *             o    1.20e-03 *             o
  ---------------------------------------------------------------------------------------------
      2    -189.53673760   -1.56e-02      8.62e-02      5.16e-02 o    3.74e-01      1.58e-01 o  ~
  ---------------------------------------------------------------------------------------------

	Writing optimization data to binary file.
	Structure for next step:
	Cartesian Geometry (in Angstrom)
	    C     0.0795967085  -0.1214076531   0.0284593277
	    O    -1.2085549946  -0.2163851383  -0.0400804574
	    O     1.0226640629   0.5433455864  -0.0346545754
	    H     0.4493297739  -1.6107985145   0.3368458775
	    H    -0.6910581730  -1.2660107082   0.1945146849
			--------------------------
			 OPTKING Finished Execution 
			--------------------------

    Structure for next step:
    Molecular point group: c1
    Full point group: C1

    Geometry (in Angstrom), charge = 0, multiplicity = 1:

    C            0.128759743955    -0.140394353865     0.035379156949
    O           -1.159391959108    -0.235371839011    -0.033160628151
    O            1.071827098359     0.524358885706    -0.027734746196
    H            0.498492809309    -1.629785215220     0.343765706712
    H           -0.641895137597    -1.284997408944     0.201434514089

gradient() will perform analytic gradient computation.

*** tstart() called on localhost.localdomain
*** at Fri Mar 29 12:17:28 2019

   => Loading Basis Set <=

    Name: DEF2-SVP
    Role: ORBITAL
    Keyword: BASIS
    atoms 1   entry C          line    90 file /root/psi4conda/share/psi4/basis/def2-svp.gbs 
    atoms 2-3 entry O          line   130 file /root/psi4conda/share/psi4/basis/def2-svp.gbs 
    atoms 4-5 entry H          line    15 file /root/psi4conda/share/psi4/basis/def2-svp.gbs 


         ---------------------------------------------------------
                                   SCF
            by Justin Turney, Rob Parrish, Andy Simmonett
                             and Daniel Smith
                              RKS Reference
                       32 Threads,    500 MiB Core
         ---------------------------------------------------------

  ==> Geometry <==

    Molecular point group: c1
    Full point group: C1

    Geometry (in Angstrom), charge = 0, multiplicity = 1:

       Center              X                  Y                   Z               Mass       
    ------------   -----------------  -----------------  -----------------  -----------------
         C            0.128759743955    -0.140394353865     0.035379156949    12.000000000000
         O           -1.159391959108    -0.235371839011    -0.033160628151    15.994914619560
         O            1.071827098359     0.524358885706    -0.027734746196    15.994914619560
         H            0.498492809309    -1.629785215220     0.343765706712     1.007825032070
         H           -0.641895137597    -1.284997408944     0.201434514089     1.007825032070

  Running in c1 symmetry.

  Rotational constants: A =      3.22625  B =      0.36984  C =      0.33180 [cm^-1]
  Rotational constants: A =  96720.65121  B =  11087.39969  C =   9947.12834 [MHz]
  Nuclear repulsion =   69.778952837230335

  Charge       = 0
  Multiplicity = 1
  Electrons    = 24
  Nalpha       = 12
  Nbeta        = 12

  ==> Algorithm <==

  SCF Algorithm Type is DF.
  DIIS enabled.
  MOM disabled.
  Fractional occupation disabled.
  Guess Type is READ.
  Energy threshold   = 1.00e-08
  Density threshold  = 1.00e-08
  Integral threshold = 0.00e+00

  ==> Primary Basis <==

  Basis Set: DEF2-SVP
    Blend: DEF2-SVP
    Number of shells: 24
    Number of basis function: 52
    Number of Cartesian functions: 55
    Spherical Harmonics?: true
    Max angular momentum: 2

  ==> DFT Potential <==

   => Composite Functional: B3LYP <= 

    B3LYP Hyb-GGA Exchange-Correlation Functional

    P. J. Stephens, F. J. Devlin, C. F. Chabalowski, and M. J. Frisch, J. Phys. Chem. 98, 11623 (1994)

    Deriv               =              1
    GGA                 =           TRUE
    Meta                =          FALSE

    Exchange Hybrid     =           TRUE
    MP2 Hybrid          =          FALSE

   => Exchange Functionals <=

    0.0800   Slater exchange
    0.7200         Becke 88

   => Exact (HF) Exchange <=

    0.2000               HF 

   => Correlation Functionals <=

    0.1900   Vosko, Wilk & Nusair (VWN5_RPA)
    0.8100   Lee, Yang & Parr

   => Molecular Quadrature <=

    Radial Scheme       =       TREUTLER
    Pruning Scheme      =           FLAT
    Nuclear Scheme      =       TREUTLER

    BS radius alpha     =              1
    Pruning alpha       =              1
    Radial Points       =             75
    Spherical Points    =            302
    Total Points        =         109983
    Total Blocks        =            897
    Max Points          =            255
    Max Functions       =             51

   => Loading Basis Set <=

    Name: (DEF2-SVP AUX)
    Role: JKFIT
    Keyword: DF_BASIS_SCF
    atoms 1   entry C          line   203 file /root/psi4conda/share/psi4/basis/def2-svp-jkfit.gbs 
    atoms 2-3 entry O          line   323 file /root/psi4conda/share/psi4/basis/def2-svp-jkfit.gbs 
    atoms 4-5 entry H          line    23 file /root/psi4conda/share/psi4/basis/def2-svp-jkfit.gbs 

  Reading orbitals from file 180, no projection.

  ==> Pre-Iterations <==

   -------------------------------------------------------
    Irrep   Nso     Nmo     Nalpha   Nbeta   Ndocc  Nsocc
   -------------------------------------------------------
     A         52      52       0       0       0       0
   -------------------------------------------------------
    Total      52      52      12      12      12       0
   -------------------------------------------------------

  ==> Integral Setup <==

  DFHelper Memory: AOs need 0.008 [GiB]; user supplied 0.366 [GiB]. Using in-core AOs.

  ==> MemDFJK: Density-Fitted J/K Matrices <==

    J tasked:                   Yes
    K tasked:                   Yes
    wK tasked:                   No
    OpenMP threads:              32
    Memory (MB):                375
    Algorithm:                 Core
    Schwarz Cutoff:           1E-12
    Mask sparsity (%):       0.0740
    Fitting Condition:        1E-12

   => Auxiliary Basis Set <=

  Basis Set: (DEF2-SVP AUX)
    Blend: DEF2-SVP-JKFIT
    Number of shells: 87
    Number of basis function: 265
    Number of Cartesian functions: 315
    Spherical Harmonics?: true
    Max angular momentum: 4

  Minimum eigenvalue in the overlap matrix is 8.8711083414E-03.
  Using Symmetric Orthogonalization.

  SCF Guess: Orbitals guess was supplied from a previous computation.

  ==> Iterations <==

                           Total Energy        Delta E     RMS |[F,P]|

   @DF-RKS iter   0:  -189.37355819189526   -1.89374e+02   1.66828e-02 
   @DF-RKS iter   1:  -189.49096717185648   -1.17409e-01   1.18183e-02 
   @DF-RKS iter   2:  -189.45697015056945    3.39970e-02   1.87708e-02 DIIS
   @DF-RKS iter   3:  -189.50081659744976   -4.38464e-02   2.34513e-03 DIIS
   @DF-RKS iter   4:  -189.50113993590773   -3.23338e-04   7.19868e-04 DIIS
   @DF-RKS iter   5:  -189.50117869927553   -3.87634e-05   4.28879e-04 DIIS
   @DF-RKS iter   6:  -189.50118509534079   -6.39607e-06   9.98884e-05 DIIS
   @DF-RKS iter   7:  -189.50118624238988   -1.14705e-06   9.73095e-06 DIIS
   @DF-RKS iter   8:  -189.50118625463827   -1.22484e-08   1.41529e-06 DIIS
   @DF-RKS iter   9:  -189.50118625502813   -3.89861e-10   2.22361e-07 DIIS
   @DF-RKS iter  10:  -189.50118625503561   -7.47491e-12   3.13995e-08 DIIS
   @DF-RKS iter  11:  -189.50118625503563   -2.84217e-14   6.84688e-09 DIIS

  ==> Post-Iterations <==

    Orbital Energies [Eh]
    ---------------------

    Doubly Occupied:                                                      

       1A    -19.211491     2A    -19.202209     3A    -10.398020  
       4A     -1.146225     5A     -1.093356     6A     -0.613888  
       7A     -0.561461     8A     -0.513030     9A     -0.503969  
      10A     -0.408553    11A     -0.369160    12A     -0.306520  

    Virtual:                                                              

      13A     -0.029432    14A     -0.012564    15A      0.062370  
      16A      0.145436    17A      0.319373    18A      0.384222  
      19A      0.406808    20A      0.440731    21A      0.493487  
      22A      0.571207    23A      0.677881    24A      0.838553  
      25A      0.894636    26A      0.909109    27A      1.014891  
      28A      1.018908    29A      1.102106    30A      1.157330  
      31A      1.302261    32A      1.332396    33A      1.387274  
      34A      1.481492    35A      1.573914    36A      1.628192  
      37A      1.630400    38A      1.716436    39A      1.973084  
      40A      2.124255    41A      2.245106    42A      2.585053  
      43A      2.596554    44A      2.666531    45A      2.698899  
      46A      2.807807    47A      2.966099    48A      3.210420  
      49A      3.321476    50A      3.396833    51A      3.578360  
      52A      3.740136  

    Final Occupation by Irrep:
              A 
    DOCC [    12 ]

  Energy converged.

  @DF-RKS Final Energy:  -189.50118625503563

   => Energetics <=

    Nuclear Repulsion Energy =             69.7789528372303351
    One-Electron Energy =                -396.4209183942697337
    Two-Electron Energy =                 155.9152213730661458
    DFT Exchange-Correlation Energy =     -18.7744420710623920
    Empirical Dispersion Energy =           0.0000000000000000
    VV10 Nonlocal Energy =                  0.0000000000000000
    Total Energy =                       -189.5011862550356341



Properties will be evaluated at   0.000000,   0.000000,   0.000000 [a0]

Properties computed using the SCF density matrix

  Nuclear Dipole Moment: [e a0]
     X:    -0.1349      Y:    -2.7311      Z:     0.5108

  Electronic Dipole Moment: [e a0]
     X:    -0.0310      Y:     2.2696      Z:    -0.4341

  Dipole Moment: [e a0]
     X:    -0.1659      Y:    -0.4615      Z:     0.0767     Total:     0.4964

  Dipole Moment: [D]
     X:    -0.4216      Y:    -1.1731      Z:     0.1949     Total:     1.2617


*** tstop() called on localhost.localdomain at Fri Mar 29 12:17:29 2019
Module time:
	user time   =      23.10 seconds =       0.38 minutes
	system time =       1.13 seconds =       0.02 minutes
	total time  =          1 seconds =       0.02 minutes
Total time:
	user time   =     163.03 seconds =       2.72 minutes
	system time =      11.32 seconds =       0.19 minutes
	total time  =          8 seconds =       0.13 minutes

*** tstart() called on localhost.localdomain
*** at Fri Mar 29 12:17:29 2019


         ------------------------------------------------------------
                                   SCF GRAD                          
                          Rob Parrish, Justin Turney,                
                       Andy Simmonett, and Alex Sokolov              
         ------------------------------------------------------------

  ==> Geometry <==

    Molecular point group: c1
    Full point group: C1

    Geometry (in Angstrom), charge = 0, multiplicity = 1:

       Center              X                  Y                   Z               Mass       
    ------------   -----------------  -----------------  -----------------  -----------------
         C            0.128759743955    -0.140394353865     0.035379156949    12.000000000000
         O           -1.159391959108    -0.235371839011    -0.033160628151    15.994914619560
         O            1.071827098359     0.524358885706    -0.027734746196    15.994914619560
         H            0.498492809309    -1.629785215220     0.343765706712     1.007825032070
         H           -0.641895137597    -1.284997408944     0.201434514089     1.007825032070

  Nuclear repulsion =   69.778952837230335

  ==> Basis Set <==

  Basis Set: DEF2-SVP
    Blend: DEF2-SVP
    Number of shells: 24
    Number of basis function: 52
    Number of Cartesian functions: 55
    Spherical Harmonics?: true
    Max angular momentum: 2

  ==> DFJKGrad: Density-Fitted SCF Gradients <==

    Gradient:                    1
    J tasked:                  Yes
    K tasked:                  Yes
    wK tasked:                  No
    OpenMP threads:             32
    Integrals threads:          32
    Memory (MB):               375
    Schwarz Cutoff:          0E+00
    Fitting Condition:       1E-12

   => Auxiliary Basis Set <=

  Basis Set: (DEF2-SVP AUX)
    Blend: DEF2-SVP-JKFIT
    Number of shells: 87
    Number of basis function: 265
    Number of Cartesian functions: 315
    Spherical Harmonics?: true
    Max angular momentum: 4

  ==> DFT Potential <==

   => Composite Functional: B3LYP <= 

    B3LYP Hyb-GGA Exchange-Correlation Functional

    P. J. Stephens, F. J. Devlin, C. F. Chabalowski, and M. J. Frisch, J. Phys. Chem. 98, 11623 (1994)

    Deriv               =              1
    GGA                 =           TRUE
    Meta                =          FALSE

    Exchange Hybrid     =           TRUE
    MP2 Hybrid          =          FALSE

   => Exchange Functionals <=

    0.0800   Slater exchange
    0.7200         Becke 88

   => Exact (HF) Exchange <=

    0.2000               HF 

   => Correlation Functionals <=

    0.1900   Vosko, Wilk & Nusair (VWN5_RPA)
    0.8100   Lee, Yang & Parr

   => Molecular Quadrature <=

    Radial Scheme       =       TREUTLER
    Pruning Scheme      =           FLAT
    Nuclear Scheme      =       TREUTLER

    BS radius alpha     =              1
    Pruning alpha       =              1
    Radial Points       =             75
    Spherical Points    =            302
    Total Points        =         109983
    Total Blocks        =            897
    Max Points          =            255
    Max Functions       =             51


  -Total Gradient:
     Atom            X                  Y                   Z
    ------   -----------------  -----------------  -----------------
       1        0.012778550364     0.032821449088    -0.005390403596
       2       -0.036658348883     0.009006549820    -0.004178482829
       3       -0.012984136573    -0.025910243638     0.004059564866
       4        0.013317852789    -0.024769096942     0.005611372551
       5        0.023581005713     0.008859931416    -0.000101332695


*** tstop() called on localhost.localdomain at Fri Mar 29 12:17:31 2019
Module time:
	user time   =      40.25 seconds =       0.67 minutes
	system time =       3.32 seconds =       0.06 minutes
	total time  =          2 seconds =       0.03 minutes
Total time:
	user time   =     203.34 seconds =       3.39 minutes
	system time =      14.65 seconds =       0.24 minutes
	total time  =         10 seconds =       0.17 minutes

			-----------------------------------------
			 OPTKING 2.0: for geometry optimizations 
			  - R.A. King,  Bethel University        
			-----------------------------------------

	Previous internal coordinate definitions found.
	---Fragment 1 Geometry and Gradient---
	 C           0.2433206530       -0.2653068794        0.0668569174
	 O          -2.1909332834       -0.4447883151       -0.0626645056
	 O           2.0254596777        0.9908946893       -0.0524110747
	 H           0.9420148888       -3.0798477122        0.6496230396
	 H          -1.2130060161       -2.4282931844        0.3806560653
	             0.0127785504        0.0328214491       -0.0053904036
	            -0.0366583489        0.0090065498       -0.0041784828
	            -0.0129841366       -0.0259102436        0.0040595649
	             0.0133178528       -0.0247690969        0.0056113726
	             0.0235810057        0.0088599314       -0.0001013327

	---Fragment 1 Intrafragment Coordinates---
	 - Coordinate -           - BOHR/RAD -       - ANG/DEG -
	 R(1,2)           =         2.444296	       1.293466
	 R(1,3)           =         2.183641	       1.155533
	 R(1,4)           =         2.957944	       1.565276
	 R(2,5)           =         2.255475	       1.193546
	 B(1,2,5)         =         1.183551	      67.812500
	 B(2,1,3)         =         2.590832	     148.443755
	 B(2,1,4)         =         1.747525	     100.125800
	 B(3,1,4)         =         1.944828	     111.430445
	 D(3,1,2,5)       =         3.141593	     180.000000
	 D(4,1,2,5)       =        -0.000000	      -0.000000

	Current energy   :      -189.5011862550

	Energy change for the previous step:
		Projected    :         0.0269283334
		Actual       :         0.0355513436

	Performing Bofill update.
	Previous computed or guess Hessian on step 1.
	Steps to be used in Hessian update: 2 1
	Taking PRFO optimization step.
	Maximizing along 1 lowest eigenvalue of Hessian.

 RFO min eigenvalues
 -0.009812  0.000000  0.022141  0.022141  0.161443  0.215879  0.288963  0.419126
  0.779082  1.365962

 RFO max eigenvalues
 -0.210634  0.009689
	|RFO target step|  :        0.2940651152
	RFO gradient       :       -0.0004182682
	RFO hessian        :        0.0019833181
	Projected Delta(E) :       -0.0000342807

	Back-transformation to cartesian coordinates...
	Successfully converged to displaced geometry.

	--- Internal Coordinate Step in ANG or DEG, aJ/ANG or AJ/DEG ---
	 ---------------------------------------------------------------------------
	   Coordinate                Previous        Force       Change         New 
	   ----------                --------       ------       ------       ------
	    1 R(1,2)          =      1.293466    -0.098452    -0.025761     1.267705
	    2 R(1,3)          =      1.155533     0.212009     0.006544     1.162076
	    3 R(1,4)          =      1.565276    -0.229178     0.079980     1.645257
	    4 R(2,5)          =      1.193546    -0.019935     0.091180     1.284726
	    5 B(1,2,5)        =     67.812500     0.004303     4.000714    71.813214
	    6 B(2,1,3)        =    148.443755    -0.001021     5.218602   153.662357
	    7 B(2,1,4)        =    100.125800    -0.000273    -7.419961    92.705838
	    8 B(3,1,4)        =    111.430445     0.001294     2.201360   113.631805
	    9 D(3,1,2,5)      =    180.000000    -0.000000    -0.002009   179.997991
	   10 D(4,1,2,5)      =      0.000000     0.000000     0.004409     0.004409
	 ---------------------------------------------------------------------------
	Successfully symmetrized geometry.

  ==> Convergence Check <==

  Measures of convergence in internal coordinates in au.
  Criteria marked as inactive (o), active & met (*), and active & unmet ( ).
  ---------------------------------------------------------------------------------------------
   Step     Total Energy     Delta E     MAX Force     RMS Force      MAX Disp      RMS Disp   
  ---------------------------------------------------------------------------------------------
    Convergence Criteria    1.00e-06 *    3.00e-04 *             o    1.20e-03 *             o
  ---------------------------------------------------------------------------------------------
      3    -189.50118626    3.56e-02      5.65e-02      2.29e-02 o    1.72e-01      9.30e-02 o  ~
  ---------------------------------------------------------------------------------------------

	Writing optimization data to binary file.
	Structure for next step:
	Cartesian Geometry (in Angstrom)
	    C     0.1240863483  -0.0693383643   0.0215558683
	    O    -1.1315968286  -0.2352802604  -0.0313439584
	    O     1.0935220738   0.5689750886  -0.0347653067
	    H     0.3990951417  -1.6593455486   0.3426739625
	    H    -0.5873141803  -1.3712008466   0.2215634377
			--------------------------
			 OPTKING Finished Execution 
			--------------------------

    Structure for next step:
    Molecular point group: c1
    Full point group: C1

    Geometry (in Angstrom), charge = 0, multiplicity = 1:

    C            0.109080703761    -0.100880246260     0.026557208576
    O           -1.146602473140    -0.266822142315    -0.026342618200
    O            1.078516429292     0.537433206664    -0.029763966422
    H            0.384089497160    -1.690887430494     0.347675302720
    H           -0.602319824852    -1.402742728553     0.226564777937

gradient() will perform analytic gradient computation.

*** tstart() called on localhost.localdomain
*** at Fri Mar 29 12:17:31 2019

   => Loading Basis Set <=

    Name: DEF2-SVP
    Role: ORBITAL
    Keyword: BASIS
    atoms 1   entry C          line    90 file /root/psi4conda/share/psi4/basis/def2-svp.gbs 
    atoms 2-3 entry O          line   130 file /root/psi4conda/share/psi4/basis/def2-svp.gbs 
    atoms 4-5 entry H          line    15 file /root/psi4conda/share/psi4/basis/def2-svp.gbs 


         ---------------------------------------------------------
                                   SCF
            by Justin Turney, Rob Parrish, Andy Simmonett
                             and Daniel Smith
                              RKS Reference
                       32 Threads,    500 MiB Core
         ---------------------------------------------------------

  ==> Geometry <==

    Molecular point group: c1
    Full point group: C1

    Geometry (in Angstrom), charge = 0, multiplicity = 1:

       Center              X                  Y                   Z               Mass       
    ------------   -----------------  -----------------  -----------------  -----------------
         C            0.109080703761    -0.100880246260     0.026557208576    12.000000000000
         O           -1.146602473140    -0.266822142315    -0.026342618200    15.994914619560
         O            1.078516429292     0.537433206664    -0.029763966422    15.994914619560
         H            0.384089497160    -1.690887430494     0.347675302720     1.007825032070
         H           -0.602319824852    -1.402742728553     0.226564777937     1.007825032070

  Running in c1 symmetry.

  Rotational constants: A =      3.23536  B =      0.36621  C =      0.32897 [cm^-1]
  Rotational constants: A =  96993.51403  B =  10978.63343  C =   9862.32340 [MHz]
  Nuclear repulsion =   69.490794157059483

  Charge       = 0
  Multiplicity = 1
  Electrons    = 24
  Nalpha       = 12
  Nbeta        = 12

  ==> Algorithm <==

  SCF Algorithm Type is DF.
  DIIS enabled.
  MOM disabled.
  Fractional occupation disabled.
  Guess Type is READ.
  Energy threshold   = 1.00e-08
  Density threshold  = 1.00e-08
  Integral threshold = 0.00e+00

  ==> Primary Basis <==

  Basis Set: DEF2-SVP
    Blend: DEF2-SVP
    Number of shells: 24
    Number of basis function: 52
    Number of Cartesian functions: 55
    Spherical Harmonics?: true
    Max angular momentum: 2

  ==> DFT Potential <==

   => Composite Functional: B3LYP <= 

    B3LYP Hyb-GGA Exchange-Correlation Functional

    P. J. Stephens, F. J. Devlin, C. F. Chabalowski, and M. J. Frisch, J. Phys. Chem. 98, 11623 (1994)

    Deriv               =              1
    GGA                 =           TRUE
    Meta                =          FALSE

    Exchange Hybrid     =           TRUE
    MP2 Hybrid          =          FALSE

   => Exchange Functionals <=

    0.0800   Slater exchange
    0.7200         Becke 88

   => Exact (HF) Exchange <=

    0.2000               HF 

   => Correlation Functionals <=

    0.1900   Vosko, Wilk & Nusair (VWN5_RPA)
    0.8100   Lee, Yang & Parr

   => Molecular Quadrature <=

    Radial Scheme       =       TREUTLER
    Pruning Scheme      =           FLAT
    Nuclear Scheme      =       TREUTLER

    BS radius alpha     =              1
    Pruning alpha       =              1
    Radial Points       =             75
    Spherical Points    =            302
    Total Points        =         109994
    Total Blocks        =            896
    Max Points          =            256
    Max Functions       =             51

   => Loading Basis Set <=

    Name: (DEF2-SVP AUX)
    Role: JKFIT
    Keyword: DF_BASIS_SCF
    atoms 1   entry C          line   203 file /root/psi4conda/share/psi4/basis/def2-svp-jkfit.gbs 
    atoms 2-3 entry O          line   323 file /root/psi4conda/share/psi4/basis/def2-svp-jkfit.gbs 
    atoms 4-5 entry H          line    23 file /root/psi4conda/share/psi4/basis/def2-svp-jkfit.gbs 

  Reading orbitals from file 180, no projection.

  ==> Pre-Iterations <==

   -------------------------------------------------------
    Irrep   Nso     Nmo     Nalpha   Nbeta   Ndocc  Nsocc
   -------------------------------------------------------
     A         52      52       0       0       0       0
   -------------------------------------------------------
    Total      52      52      12      12      12       0
   -------------------------------------------------------

  ==> Integral Setup <==

  DFHelper Memory: AOs need 0.008 [GiB]; user supplied 0.366 [GiB]. Using in-core AOs.

  ==> MemDFJK: Density-Fitted J/K Matrices <==

    J tasked:                   Yes
    K tasked:                   Yes
    wK tasked:                   No
    OpenMP threads:              32
    Memory (MB):                375
    Algorithm:                 Core
    Schwarz Cutoff:           1E-12
    Mask sparsity (%):       0.0740
    Fitting Condition:        1E-12

   => Auxiliary Basis Set <=

  Basis Set: (DEF2-SVP AUX)
    Blend: DEF2-SVP-JKFIT
    Number of shells: 87
    Number of basis function: 265
    Number of Cartesian functions: 315
    Spherical Harmonics?: true
    Max angular momentum: 4

  Minimum eigenvalue in the overlap matrix is 8.6323488422E-03.
  Using Symmetric Orthogonalization.

  SCF Guess: Orbitals guess was supplied from a previous computation.

  ==> Iterations <==

                           Total Energy        Delta E     RMS |[F,P]|

   @DF-RKS iter   0:  -189.47060750722474   -1.89471e+02   3.10323e-02 
   @DF-RKS iter   1:  -189.50081907930607   -3.02116e-02   5.14874e-03 
   @DF-RKS iter   2:  -189.48784639364212    1.29727e-02   2.00122e-02 DIIS
   @DF-RKS iter   3:  -189.50459552879056   -1.67491e-02   1.71172e-03 DIIS
   @DF-RKS iter   4:  -189.50479134461062   -1.95816e-04   3.74891e-04 DIIS
   @DF-RKS iter   5:  -189.50480337816384   -1.20336e-05   6.17098e-05 DIIS
   @DF-RKS iter   6:  -189.50480405885546   -6.80692e-07   1.07170e-04 DIIS
   @DF-RKS iter   7:  -189.50480450780211   -4.48947e-07   1.09910e-05 DIIS
   @DF-RKS iter   8:  -189.50480451617673   -8.37463e-09   8.90024e-07 DIIS
   @DF-RKS iter   9:  -189.50480451629056   -1.13829e-10   1.31088e-07 DIIS
   @DF-RKS iter  10:  -189.50480451629173   -1.16529e-12   2.36637e-08 DIIS
   @DF-RKS iter  11:  -189.50480451629173    0.00000e+00   2.53166e-09 DIIS

  ==> Post-Iterations <==

    Orbital Energies [Eh]
    ---------------------

    Doubly Occupied:                                                      

       1A    -19.226325     2A    -19.203034     3A    -10.411608  
       4A     -1.153063     5A     -1.095361     6A     -0.605415  
       7A     -0.567469     8A     -0.521547     9A     -0.513227  
      10A     -0.416744    11A     -0.373099    12A     -0.304194  

    Virtual:                                                              

      13A     -0.050389    14A     -0.014207    15A      0.081387  
      16A      0.130137    17A      0.301853    18A      0.388126  
      19A      0.401327    20A      0.437456    21A      0.516337  
      22A      0.567835    23A      0.676532    24A      0.832352  
      25A      0.884976    26A      0.926412    27A      1.004312  
      28A      1.032911    29A      1.122213    30A      1.144904  
      31A      1.262805    32A      1.307464    33A      1.441845  
      34A      1.517005    35A      1.555800    36A      1.617841  
      37A      1.669782    38A      1.717426    39A      1.952635  
      40A      2.084937    41A      2.298446    42A      2.570800  
      43A      2.612512    44A      2.677426    45A      2.681303  
      46A      2.782131    47A      2.956612    48A      3.233059  
      49A      3.339103    50A      3.350473    51A      3.560844  
      52A      3.754243  

    Final Occupation by Irrep:
              A 
    DOCC [    12 ]

  Energy converged.

  @DF-RKS Final Energy:  -189.50480451629173

   => Energetics <=

    Nuclear Repulsion Energy =             69.4907941570594829
    One-Electron Energy =                -395.7301460399102098
    Two-Electron Energy =                 155.5009838190821938
    DFT Exchange-Correlation Energy =     -18.7664364525231946
    Empirical Dispersion Energy =           0.0000000000000000
    VV10 Nonlocal Energy =                  0.0000000000000000
    Total Energy =                       -189.5048045162916992



Properties will be evaluated at   0.000000,   0.000000,   0.000000 [a0]

Properties computed using the SCF density matrix

  Nuclear Dipole Moment: [e a0]
     X:    -0.2049      Y:    -2.8989      Z:     0.5381

  Electronic Dipole Moment: [e a0]
     X:     0.1338      Y:     2.6643      Z:    -0.4981

  Dipole Moment: [e a0]
     X:    -0.0711      Y:    -0.2345      Z:     0.0399     Total:     0.2483

  Dipole Moment: [D]
     X:    -0.1807      Y:    -0.5962      Z:     0.1015     Total:     0.6311


*** tstop() called on localhost.localdomain at Fri Mar 29 12:17:32 2019
Module time:
	user time   =      22.03 seconds =       0.37 minutes
	system time =       1.21 seconds =       0.02 minutes
	total time  =          1 seconds =       0.02 minutes
Total time:
	user time   =     225.95 seconds =       3.77 minutes
	system time =      15.92 seconds =       0.27 minutes
	total time  =         11 seconds =       0.18 minutes

*** tstart() called on localhost.localdomain
*** at Fri Mar 29 12:17:32 2019


         ------------------------------------------------------------
                                   SCF GRAD                          
                          Rob Parrish, Justin Turney,                
                       Andy Simmonett, and Alex Sokolov              
         ------------------------------------------------------------

  ==> Geometry <==

    Molecular point group: c1
    Full point group: C1

    Geometry (in Angstrom), charge = 0, multiplicity = 1:

       Center              X                  Y                   Z               Mass       
    ------------   -----------------  -----------------  -----------------  -----------------
         C            0.109080703761    -0.100880246260     0.026557208576    12.000000000000
         O           -1.146602473140    -0.266822142315    -0.026342618200    15.994914619560
         O            1.078516429292     0.537433206664    -0.029763966422    15.994914619560
         H            0.384089497160    -1.690887430494     0.347675302720     1.007825032070
         H           -0.602319824852    -1.402742728553     0.226564777937     1.007825032070

  Nuclear repulsion =   69.490794157059483

  ==> Basis Set <==

  Basis Set: DEF2-SVP
    Blend: DEF2-SVP
    Number of shells: 24
    Number of basis function: 52
    Number of Cartesian functions: 55
    Spherical Harmonics?: true
    Max angular momentum: 2

  ==> DFJKGrad: Density-Fitted SCF Gradients <==

    Gradient:                    1
    J tasked:                  Yes
    K tasked:                  Yes
    wK tasked:                  No
    OpenMP threads:             32
    Integrals threads:          32
    Memory (MB):               375
    Schwarz Cutoff:          0E+00
    Fitting Condition:       1E-12

   => Auxiliary Basis Set <=

  Basis Set: (DEF2-SVP AUX)
    Blend: DEF2-SVP-JKFIT
    Number of shells: 87
    Number of basis function: 265
    Number of Cartesian functions: 315
    Spherical Harmonics?: true
    Max angular momentum: 4

  ==> DFT Potential <==

   => Composite Functional: B3LYP <= 

    B3LYP Hyb-GGA Exchange-Correlation Functional

    P. J. Stephens, F. J. Devlin, C. F. Chabalowski, and M. J. Frisch, J. Phys. Chem. 98, 11623 (1994)

    Deriv               =              1
    GGA                 =           TRUE
    Meta                =          FALSE

    Exchange Hybrid     =           TRUE
    MP2 Hybrid          =          FALSE

   => Exchange Functionals <=

    0.0800   Slater exchange
    0.7200         Becke 88

   => Exact (HF) Exchange <=

    0.2000               HF 

   => Correlation Functionals <=

    0.1900   Vosko, Wilk & Nusair (VWN5_RPA)
    0.8100   Lee, Yang & Parr

   => Molecular Quadrature <=

    Radial Scheme       =       TREUTLER
    Pruning Scheme      =           FLAT
    Nuclear Scheme      =       TREUTLER

    BS radius alpha     =              1
    Pruning alpha       =              1
    Radial Points       =             75
    Spherical Points    =            302
    Total Points        =         109994
    Total Blocks        =            896
    Max Points          =            256
    Max Functions       =             51


  -Total Gradient:
     Atom            X                  Y                   Z
    ------   -----------------  -----------------  -----------------
       1        0.038870217041     0.002671968532     0.002115052691
       2       -0.030260789477    -0.027099089996     0.003117519064
       3        0.004548796931     0.004685076751    -0.000588736375
       4        0.008605450323    -0.001965592939     0.000947644493
       5       -0.021787211205     0.021710227751    -0.005593559372


*** tstop() called on localhost.localdomain at Fri Mar 29 12:17:34 2019
Module time:
	user time   =      39.35 seconds =       0.66 minutes
	system time =       3.13 seconds =       0.05 minutes
	total time  =          2 seconds =       0.03 minutes
Total time:
	user time   =     265.34 seconds =       4.42 minutes
	system time =      19.05 seconds =       0.32 minutes
	total time  =         13 seconds =       0.22 minutes

			-----------------------------------------
			 OPTKING 2.0: for geometry optimizations 
			  - R.A. King,  Bethel University        
			-----------------------------------------

	Previous internal coordinate definitions found.
	---Fragment 1 Geometry and Gradient---
	 C           0.2061326565       -0.1906360376        0.0501858511
	 O          -2.1667646575       -0.5042207752       -0.0497803340
	 O           2.0381006812        1.0156015753       -0.0562457452
	 H           0.7258239602       -3.1953141652        0.6570111053
	 H          -1.1382195134       -2.6507995919        0.4281453817
	             0.0388702170        0.0026719685        0.0021150527
	            -0.0302607895       -0.0270990900        0.0031175191
	             0.0045487969        0.0046850768       -0.0005887364
	             0.0086054503       -0.0019655929        0.0009476445
	            -0.0217872112        0.0217102278       -0.0055935594

	---Fragment 1 Intrafragment Coordinates---
	 - Coordinate -           - BOHR/RAD -       - ANG/DEG -
	 R(1,2)           =         2.395615	       1.267705
	 R(1,3)           =         2.196006	       1.162076
	 R(1,4)           =         3.109085	       1.645257
	 R(2,5)           =         2.427781	       1.284726
	 B(1,2,5)         =         1.253377	      71.813214
	 B(2,1,3)         =         2.681914	     153.662357
	 B(2,1,4)         =         1.618022	      92.705838
	 B(3,1,4)         =         1.983249	     113.631805
	 D(3,1,2,5)       =         3.141558	     179.997991
	 D(4,1,2,5)       =         0.000077	       0.004409

	Current energy   :      -189.5048045163

	Energy change for the previous step:
		Projected    :        -0.0000342807
		Actual       :        -0.0036182613

	Performing Bofill update.
	Previous computed or guess Hessian on step 1.
	Change in internal coordinate of 5.25e-01 exceeds limit of 5.00e-01.
	 Skipping Hessian update for step 2.
	Change in internal coordinate of 5.11e-01 exceeds limit of 5.00e-01.
	 Skipping Hessian update for step 1.
	Steps to be used in Hessian update: 3
	Taking PRFO optimization step.
	Maximizing along 1 lowest eigenvalue of Hessian.

 RFO min eigenvalues
 -0.004632  0.000000  0.022141  0.022141  0.190339  0.244234  0.253993  0.430901
  0.741907  1.367042

 RFO max eigenvalues
 -0.396882  0.005989
	|RFO target step|  :        0.1637425001
	RFO gradient       :        0.0082883359
	RFO hessian        :       -0.0492721812
	Projected Delta(E) :        0.0006784299

	Back-transformation to cartesian coordinates...
	Successfully converged to displaced geometry.

	--- Internal Coordinate Step in ANG or DEG, aJ/ANG or AJ/DEG ---
	 ---------------------------------------------------------------------------
	   Coordinate                Previous        Force       Change         New 
	   ----------                --------       ------       ------       ------
	    1 R(1,2)          =      1.267705    -0.431326    -0.009388     1.258317
	    2 R(1,3)          =      1.162076    -0.052726     0.000184     1.162261
	    3 R(1,4)          =      1.645257    -0.029033    -0.072376     1.572881
	    4 R(2,5)          =      1.284726     0.243233    -0.023474     1.261253
	    5 B(1,2,5)        =     71.813214    -0.001896     1.936645    73.749859
	    6 B(2,1,3)        =    153.662357     0.000803    -3.132188   150.530169
	    7 B(2,1,4)        =     92.705838    -0.001366     0.996787    93.702625
	    8 B(3,1,4)        =    113.631805     0.000563     2.135399   115.767204
	    9 D(3,1,2,5)      =    179.997991     0.000000     0.003130   180.001121
	   10 D(4,1,2,5)      =      0.004409    -0.000000    -0.021564    -0.017155
	 ---------------------------------------------------------------------------
	Successfully symmetrized geometry.

  ==> Convergence Check <==

  Measures of convergence in internal coordinates in au.
  Criteria marked as inactive (o), active & met (*), and active & unmet ( ).
  ---------------------------------------------------------------------------------------------
   Step     Total Energy     Delta E     MAX Force     RMS Force      MAX Disp      RMS Disp   
  ---------------------------------------------------------------------------------------------
    Convergence Criteria    1.00e-06 *    3.00e-04 *             o    1.20e-03 *             o
  ---------------------------------------------------------------------------------------------
      4    -189.50480452   -3.62e-03      5.24e-02      2.19e-02 o    1.37e-01      5.18e-02 o  ~
  ---------------------------------------------------------------------------------------------

	Writing optimization data to binary file.
	Structure for next step:
	Cartesian Geometry (in Angstrom)
	    C     0.1269868294  -0.1296675116   0.0331941628
	    O    -1.1217417098  -0.2741124276  -0.0231459334
	    O     1.0715875433   0.5444118703  -0.0315852900
	    H     0.3912765339  -1.6494420913   0.3404233527
	    H    -0.6453448646  -1.4150891807   0.2258044124
			--------------------------
			 OPTKING Finished Execution 
			--------------------------

    Structure for next step:
    Molecular point group: c1
    Full point group: C1

    Geometry (in Angstrom), charge = 0, multiplicity = 1:

    C            0.116866862661    -0.122687800431     0.031160334994
    O           -1.131861676505    -0.267132716407    -0.025179761237
    O            1.061467576651     0.551391581522    -0.033619117824
    H            0.381156567189    -1.642462380094     0.338389524895
    H           -0.655464831262    -1.408109469540     0.223770584608

gradient() will perform analytic gradient computation.

*** tstart() called on localhost.localdomain
*** at Fri Mar 29 12:17:34 2019

   => Loading Basis Set <=

    Name: DEF2-SVP
    Role: ORBITAL
    Keyword: BASIS
    atoms 1   entry C          line    90 file /root/psi4conda/share/psi4/basis/def2-svp.gbs 
    atoms 2-3 entry O          line   130 file /root/psi4conda/share/psi4/basis/def2-svp.gbs 
    atoms 4-5 entry H          line    15 file /root/psi4conda/share/psi4/basis/def2-svp.gbs 


         ---------------------------------------------------------
                                   SCF
            by Justin Turney, Rob Parrish, Andy Simmonett
                             and Daniel Smith
                              RKS Reference
                       32 Threads,    500 MiB Core
         ---------------------------------------------------------

  ==> Geometry <==

    Molecular point group: c1
    Full point group: C1

    Geometry (in Angstrom), charge = 0, multiplicity = 1:

       Center              X                  Y                   Z               Mass       
    ------------   -----------------  -----------------  -----------------  -----------------
         C            0.116866862661    -0.122687800431     0.031160334994    12.000000000000
         O           -1.131861676505    -0.267132716407    -0.025179761237    15.994914619560
         O            1.061467576651     0.551391581522    -0.033619117824    15.994914619560
         H            0.381156567189    -1.642462380094     0.338389524895     1.007825032070
         H           -0.655464831262    -1.408109469540     0.223770584608     1.007825032070

  Running in c1 symmetry.

  Rotational constants: A =      3.28938  B =      0.37263  C =      0.33472 [cm^-1]
  Rotational constants: A =  98613.23636  B =  11171.26056  C =  10034.51482 [MHz]
  Nuclear repulsion =   69.952047158292018

  Charge       = 0
  Multiplicity = 1
  Electrons    = 24
  Nalpha       = 12
  Nbeta        = 12

  ==> Algorithm <==

  SCF Algorithm Type is DF.
[...]
    ------------   -----------------  -----------------  -----------------  -----------------
         C            0.113595072843    -0.153880407652     0.037596022684    12.000000000000
         O           -1.135961394234    -0.223379947195    -0.034588131338    15.994914619560
         O            1.064242147389     0.524605985828    -0.028439251841    15.994914619560
         H            0.404693854873    -1.556634791353     0.327550495378     1.007825032070
         H           -0.619014433727    -1.391813384411     0.225090412236     1.007825032070

  Running in c1 symmetry.

  Rotational constants: A =      3.25619  B =      0.37992  C =      0.34022 [cm^-1]
  Rotational constants: A =  97618.20852  B =  11389.63499  C =  10199.59459 [MHz]
  Nuclear repulsion =   70.276589719691458

  Charge       = 0
  Multiplicity = 1
  Electrons    = 24
  Nalpha       = 12
  Nbeta        = 12

  ==> Algorithm <==

  SCF Algorithm Type is DF.
  DIIS enabled.
  MOM disabled.
  Fractional occupation disabled.
  Guess Type is READ.
  Energy threshold   = 1.00e-08
  Density threshold  = 1.00e-08
  Integral threshold = 0.00e+00

  ==> Primary Basis <==

  Basis Set: DEF2-SVP
    Blend: DEF2-SVP
    Number of shells: 24
    Number of basis function: 52
    Number of Cartesian functions: 55
    Spherical Harmonics?: true
    Max angular momentum: 2

  ==> DFT Potential <==

   => Composite Functional: B3LYP <= 

    B3LYP Hyb-GGA Exchange-Correlation Functional

    P. J. Stephens, F. J. Devlin, C. F. Chabalowski, and M. J. Frisch, J. Phys. Chem. 98, 11623 (1994)

    Deriv               =              1
    GGA                 =           TRUE
    Meta                =          FALSE

    Exchange Hybrid     =           TRUE
    MP2 Hybrid          =          FALSE

   => Exchange Functionals <=

    0.0800   Slater exchange
    0.7200         Becke 88

   => Exact (HF) Exchange <=

    0.2000               HF 

   => Correlation Functionals <=

    0.1900   Vosko, Wilk & Nusair (VWN5_RPA)
    0.8100   Lee, Yang & Parr

   => Molecular Quadrature <=

    Radial Scheme       =       TREUTLER
    Pruning Scheme      =           FLAT
    Nuclear Scheme      =       TREUTLER

    BS radius alpha     =              1
    Pruning alpha       =              1
    Radial Points       =             75
    Spherical Points    =            302
    Total Points        =         109988
    Total Blocks        =            892
    Max Points          =            256
    Max Functions       =             51

   => Loading Basis Set <=

    Name: (DEF2-SVP AUX)
    Role: JKFIT
    Keyword: DF_BASIS_SCF
    atoms 1   entry C          line   203 file /root/psi4conda/share/psi4/basis/def2-svp-jkfit.gbs 
    atoms 2-3 entry O          line   323 file /root/psi4conda/share/psi4/basis/def2-svp-jkfit.gbs 
    atoms 4-5 entry H          line    23 file /root/psi4conda/share/psi4/basis/def2-svp-jkfit.gbs 

  Reading orbitals from file 180, no projection.

  ==> Pre-Iterations <==

   -------------------------------------------------------
    Irrep   Nso     Nmo     Nalpha   Nbeta   Ndocc  Nsocc
   -------------------------------------------------------
     A         52      52       0       0       0       0
   -------------------------------------------------------
    Total      52      52      12      12      12       0
   -------------------------------------------------------

  ==> Integral Setup <==

  DFHelper Memory: AOs need 0.008 [GiB]; user supplied 0.366 [GiB]. Using in-core AOs.

  ==> MemDFJK: Density-Fitted J/K Matrices <==

    J tasked:                   Yes
    K tasked:                   Yes
    wK tasked:                   No
    OpenMP threads:              32
    Memory (MB):                375
    Algorithm:                 Core
    Schwarz Cutoff:           1E-12
    Mask sparsity (%):       0.0740
    Fitting Condition:        1E-12

   => Auxiliary Basis Set <=

  Basis Set: (DEF2-SVP AUX)
    Blend: DEF2-SVP-JKFIT
    Number of shells: 87
    Number of basis function: 265
    Number of Cartesian functions: 315
    Spherical Harmonics?: true
    Max angular momentum: 4

  Minimum eigenvalue in the overlap matrix is 9.0423877464E-03.
  Using Symmetric Orthogonalization.

  SCF Guess: Orbitals guess was supplied from a previous computation.

  ==> Iterations <==

                           Total Energy        Delta E     RMS |[F,P]|

   @DF-RKS iter   0:  -189.50724037669517   -1.89507e+02   2.97936e-04 
   @DF-RKS iter   1:  -189.50583486677547    1.40551e-03   1.16248e-04 
   @DF-RKS iter   2:  -189.50583064142293    4.22535e-06   2.48157e-04 DIIS
   @DF-RKS iter   3:  -189.50583675183950   -6.11042e-06   1.34178e-05 DIIS
   @DF-RKS iter   4:  -189.50583676475262   -1.29131e-08   3.50476e-06 DIIS
   @DF-RKS iter   5:  -189.50583676550806   -7.55449e-10   2.87598e-06 DIIS
   @DF-RKS iter   6:  -189.50583676645405   -9.45988e-10   1.10960e-06 DIIS
   @DF-RKS iter   7:  -189.50583676658434   -1.30285e-10   1.48920e-07 DIIS
   @DF-RKS iter   8:  -189.50583676658641   -2.07478e-12   1.30902e-08 DIIS
   @DF-RKS iter   9:  -189.50583676658636    5.68434e-14   2.49210e-09 DIIS

  ==> Post-Iterations <==

    Orbital Energies [Eh]
    ---------------------

    Doubly Occupied:                                                      

       1A    -19.199175     2A    -19.192634     3A    -10.394277  
       4A     -1.139834     5A     -1.082443     6A     -0.627374  
       7A     -0.551889     8A     -0.506026     9A     -0.500974  
      10A     -0.393852    11A     -0.358908    12A     -0.314859  

    Virtual:                                                              

      13A     -0.046808    14A     -0.004863    15A      0.073734  
      16A      0.158859    17A      0.301035    18A      0.405698  
      19A      0.407958    20A      0.450136    21A      0.514440  
      22A      0.559242    23A      0.672166    24A      0.841197  
      25A      0.898316    26A      0.920159    27A      1.016548  
      28A      1.016805    29A      1.133820    30A      1.134229  
      31A      1.276830    32A      1.340872    33A      1.453177  
      34A      1.505127    35A      1.583784    36A      1.654697  
      37A      1.692012    38A      1.705145    39A      1.988261  
      40A      2.192225    41A      2.266555    42A      2.584635  
      43A      2.639171    44A      2.672963    45A      2.692036  
      46A      2.831387    47A      3.016757    48A      3.232525  
      49A      3.331500    50A      3.341193    51A      3.561291  
      52A      3.744888  

    Final Occupation by Irrep:
              A 
    DOCC [    12 ]

  Energy converged.

  @DF-RKS Final Energy:  -189.50583676658636

   => Energetics <=

    Nuclear Repulsion Energy =             70.2765897196914580
    One-Electron Energy =                -397.5443949866913158
    Two-Electron Energy =                 156.5542717736795453
    DFT Exchange-Correlation Energy =     -18.7923032732660573
    Empirical Dispersion Energy =           0.0000000000000000
    VV10 Nonlocal Energy =                  0.0000000000000000
    Total Energy =                       -189.5058367665863557



Properties will be evaluated at   0.000000,   0.000000,   0.000000 [a0]

Properties computed using the SCF density matrix

  Nuclear Dipole Moment: [e a0]
     X:    -0.2013      Y:    -2.7626      Z:     0.5178

  Electronic Dipole Moment: [e a0]
     X:     0.1074      Y:     2.1337      Z:    -0.4032

  Dipole Moment: [e a0]
     X:    -0.0939      Y:    -0.6289      Z:     0.1146     Total:     0.6462

  Dipole Moment: [D]
     X:    -0.2387      Y:    -1.5986      Z:     0.2913     Total:     1.6424


*** tstop() called on localhost.localdomain at Fri Mar 29 12:17:54 2019
Module time:
	user time   =      21.60 seconds =       0.36 minutes
	system time =       1.09 seconds =       0.02 minutes
	total time  =          1 seconds =       0.02 minutes
Total time:
	user time   =     650.25 seconds =      10.84 minutes
	system time =      45.81 seconds =       0.76 minutes
	total time  =         33 seconds =       0.55 minutes

*** tstart() called on localhost.localdomain
*** at Fri Mar 29 12:17:54 2019


         ------------------------------------------------------------
                                   SCF GRAD                          
                          Rob Parrish, Justin Turney,                
                       Andy Simmonett, and Alex Sokolov              
         ------------------------------------------------------------

  ==> Geometry <==

    Molecular point group: c1
    Full point group: C1

    Geometry (in Angstrom), charge = 0, multiplicity = 1:

       Center              X                  Y                   Z               Mass       
    ------------   -----------------  -----------------  -----------------  -----------------
         C            0.113595072843    -0.153880407652     0.037596022684    12.000000000000
         O           -1.135961394234    -0.223379947195    -0.034588131338    15.994914619560
         O            1.064242147389     0.524605985828    -0.028439251841    15.994914619560
         H            0.404693854873    -1.556634791353     0.327550495378     1.007825032070
         H           -0.619014433727    -1.391813384411     0.225090412236     1.007825032070

  Nuclear repulsion =   70.276589719691458

  ==> Basis Set <==

  Basis Set: DEF2-SVP
    Blend: DEF2-SVP
    Number of shells: 24
    Number of basis function: 52
    Number of Cartesian functions: 55
    Spherical Harmonics?: true
    Max angular momentum: 2

  ==> DFJKGrad: Density-Fitted SCF Gradients <==

    Gradient:                    1
    J tasked:                  Yes
    K tasked:                  Yes
    wK tasked:                  No
    OpenMP threads:             32
    Integrals threads:          32
    Memory (MB):               375
    Schwarz Cutoff:          0E+00
    Fitting Condition:       1E-12

   => Auxiliary Basis Set <=

  Basis Set: (DEF2-SVP AUX)
    Blend: DEF2-SVP-JKFIT
    Number of shells: 87
    Number of basis function: 265
    Number of Cartesian functions: 315
    Spherical Harmonics?: true
    Max angular momentum: 4

  ==> DFT Potential <==

   => Composite Functional: B3LYP <= 

    B3LYP Hyb-GGA Exchange-Correlation Functional

    P. J. Stephens, F. J. Devlin, C. F. Chabalowski, and M. J. Frisch, J. Phys. Chem. 98, 11623 (1994)

    Deriv               =              1
    GGA                 =           TRUE
    Meta                =          FALSE

    Exchange Hybrid     =           TRUE
    MP2 Hybrid          =          FALSE

   => Exchange Functionals <=

    0.0800   Slater exchange
    0.7200         Becke 88

   => Exact (HF) Exchange <=

    0.2000               HF 

   => Correlation Functionals <=

    0.1900   Vosko, Wilk & Nusair (VWN5_RPA)
    0.8100   Lee, Yang & Parr

   => Molecular Quadrature <=

    Radial Scheme       =       TREUTLER
    Pruning Scheme      =           FLAT
    Nuclear Scheme      =       TREUTLER

    BS radius alpha     =              1
    Pruning alpha       =              1
    Radial Points       =             75
    Spherical Points    =            302
    Total Points        =         109988
    Total Blocks        =            892
    Max Points          =            256
    Max Functions       =             51


  -Total Gradient:
     Atom            X                  Y                   Z
    ------   -----------------  -----------------  -----------------
       1        0.000180131255    -0.000043516731     0.000063678781
       2       -0.000032709956     0.000058080066    -0.000015473045
       3       -0.000042276524     0.000077459806    -0.000043651179
       4       -0.000176178126    -0.000039443104     0.000005849787
       5        0.000117839274    -0.000047608799    -0.000008373757


*** tstop() called on localhost.localdomain at Fri Mar 29 12:17:56 2019
Module time:
	user time   =      38.08 seconds =       0.63 minutes
	system time =       3.05 seconds =       0.05 minutes
	total time  =          2 seconds =       0.03 minutes
Total time:
	user time   =     688.38 seconds =      11.47 minutes
	system time =      48.87 seconds =       0.81 minutes
	total time  =         35 seconds =       0.58 minutes

			-----------------------------------------
			 OPTKING 2.0: for geometry optimizations 
			  - R.A. King,  Bethel University        
			-----------------------------------------

	Previous internal coordinate definitions found.
	---Fragment 1 Geometry and Gradient---
	 C           0.2146635777       -0.2907918277        0.0710461866
	 O          -2.1466559326       -0.4221269238       -0.0653620957
	 O           2.0111261976        0.9913616409       -0.0537423974
	 H           0.7647605534       -2.9416134446        0.6189807310
	 H          -1.1697677520       -2.6301461246        0.4253592343
	             0.0001801313       -0.0000435167        0.0000636788
	            -0.0000327100        0.0000580801       -0.0000154730
	            -0.0000422765        0.0000774598       -0.0000436512
	            -0.0001761781       -0.0000394431        0.0000058498
	             0.0001178393       -0.0000476088       -0.0000083738

	---Fragment 1 Intrafragment Coordinates---
	 - Coordinate -           - BOHR/RAD -       - ANG/DEG -
	 R(1,2)           =         2.368900	       1.253568
	 R(1,3)           =         2.210603	       1.169801
	 R(1,4)           =         2.762190	       1.461688
	 R(2,5)           =         2.463832	       1.303804
	 B(1,2,5)         =         1.205735	      69.083536
	 B(2,1,3)         =         2.566170	     147.030695
	 B(2,1,4)         =         1.728177	      99.017252
	 B(3,1,4)         =         1.988838	     113.952042
	 D(3,1,2,5)       =         3.140273	     179.924369
	 D(4,1,2,5)       =        -0.000511	      -0.029285

	Current energy   :      -189.5058367666

	Energy change for the previous step:
		Projected    :        -0.0000026552
		Actual       :        -0.0000022848

	Performing Bofill update.
	Previous computed or guess Hessian on step 1.
	Steps to be used in Hessian update: 10 9
	Taking PRFO optimization step.
	Maximizing along 1 lowest eigenvalue of Hessian.

 RFO min eigenvalues
 -0.000000  0.000000  0.020409  0.047077  0.147623  0.197875  0.308292  0.465362
  0.686828  1.355606

 RFO max eigenvalues
 -0.375681  0.000000
	|RFO target step|  :        0.0016537516
	RFO gradient       :       -0.0002256452
	RFO hessian        :        0.1364440359
	Projected Delta(E) :       -0.0000001866

	Back-transformation to cartesian coordinates...
	Successfully converged to displaced geometry.

	--- Internal Coordinate Step in ANG or DEG, aJ/ANG or AJ/DEG ---
	 ---------------------------------------------------------------------------
	   Coordinate                Previous        Force       Change         New 
	   ----------                --------       ------       ------       ------
	    1 R(1,2)          =      1.253568     0.000575    -0.000034     1.253534
	    2 R(1,3)          =      1.169801    -0.000017     0.000015     1.169816
	    3 R(1,4)          =      1.461688    -0.000003    -0.000130     1.461558
	    4 R(2,5)          =      1.303804    -0.000780     0.000336     1.304140
	    5 B(1,2,5)        =     69.083536     0.000016    -0.004989    69.078546
	    6 B(2,1,3)        =    147.030695     0.000001     0.034314   147.065010
	    7 B(2,1,4)        =     99.017252     0.000018     0.034266    99.051519
	    8 B(3,1,4)        =    113.952042    -0.000019    -0.068573   113.883468
	    9 D(3,1,2,5)      =    179.924369     0.000001     0.018916   179.943285
	   10 D(4,1,2,5)      =     -0.029285     0.000000    -0.001737    -0.031022
	 ---------------------------------------------------------------------------
	Successfully symmetrized geometry.

  ==> Convergence Check <==

  Measures of convergence in internal coordinates in au.
  Criteria marked as inactive (o), active & met (*), and active & unmet ( ).
  ---------------------------------------------------------------------------------------------
   Step     Total Energy     Delta E     MAX Force     RMS Force      MAX Disp      RMS Disp   
  ---------------------------------------------------------------------------------------------
    Convergence Criteria    1.00e-06 *    3.00e-04 *             o    1.20e-03 *             o
  ---------------------------------------------------------------------------------------------
     11    -189.50583677   -2.28e-06      2.49e-04 *    1.34e-04 o    1.20e-03 *    5.23e-04 o  ~
  ---------------------------------------------------------------------------------------------


  **** Optimization is complete! (in 11 steps) ****

  ==> Optimization Summary <==

  Measures of convergence in internal coordinates in au.
  --------------------------------------------------------------------------------------------------------------- ~
   Step         Total Energy             Delta E       MAX Force       RMS Force        MAX Disp        RMS Disp  ~
  --------------------------------------------------------------------------------------------------------------- ~
      1    -189.521175649410   -189.521175649410      0.09582517      0.05516234      0.07612737      0.03311768  ~
      2    -189.536737598674     -0.015561949264      0.08619512      0.05155901      0.37377950      0.15811388  ~
      3    -189.501186255036      0.035551343638      0.05654847      0.02294492      0.17230585      0.09299155  ~
      4    -189.504804516292     -0.003618261256      0.05235349      0.02185296      0.13677082      0.05177992  ~
      5    -189.504277160285      0.000527356006      0.01346079      0.00614534      0.04692782      0.02136651  ~
      6    -189.504943107047     -0.000665946761      0.00534910      0.00317562      0.09412308      0.04426620  ~
      7    -189.505719093637     -0.000775986590      0.00643280      0.00329489      0.28085713      0.11975828  ~
      8    -189.499849574811      0.005869518826      0.03861143      0.01392595      0.23694471      0.08525255  ~
      9    -189.505678538199     -0.005828963388      0.01384171      0.00508721      0.05534284      0.02739710  ~
     10    -189.505834481744     -0.000155943546      0.00083547      0.00041997      0.00468748      0.00195631  ~
     11    -189.505836766586     -0.000002284842      0.00024898      0.00013437      0.00119683      0.00052296  ~
  --------------------------------------------------------------------------------------------------------------- ~

	Writing optimization data to binary file.
	Final energy is   -189.5058367665864
	Final (previous) structure:
	Cartesian Geometry (in Angstrom)
	    C     0.1135950728  -0.1538804077   0.0375960227
	    O    -1.1359613942  -0.2233799472  -0.0345881313
	    O     1.0642421474   0.5246059858  -0.0284392518
	    H     0.4046938549  -1.5566347914   0.3275504954
	    H    -0.6190144337  -1.3918133844   0.2250904122
	Saving final (previous) structure.
	Removing binary optimization data file.
			--------------------------
			 OPTKING Finished Execution 
			--------------------------

    Final optimized geometry and variables:
    Molecular point group: c1
    Full point group: C1

    Geometry (in Angstrom), charge = 0, multiplicity = 1:

    C            0.113595072843    -0.153880407652     0.037596022684
    O           -1.135961394234    -0.223379947195    -0.034588131338
    O            1.064242147389     0.524605985828    -0.028439251841
    H            0.404693854873    -1.556634791353     0.327550495378
    H           -0.619014433727    -1.391813384411     0.225090412236

	Removing binary optimization data file.
	Cleaning optimization helper files.

    Psi4 stopped on: Friday, 29 March 2019 12:17PM
    Psi4 wall time for execution: 0:00:35.20

*** Psi4 exiting successfully. Buy a developer a beer!
