
    -----------------------------------------------------------------------
          Psi4: An Open-Source Ab Initio Electronic Structure Package
                               Psi4 1.2.1 release

                         Git: Rev {HEAD} 406f4de 


    R. M. Parrish, L. A. Burns, D. G. A. Smith, A. C. Simmonett,
    A. E. DePrince III, E. G. Hohenstein, U. Bozkaya, A. Yu. Sokolov,
    R. Di Remigio, R. M. Richard, J. F. Gonthier, A. M. James,
    H. R. McAlexander, A. Kumar, M. Saitow, X. Wang, B. P. Pritchard,
    P. Verma, H. F. Schaefer III, K. Patkowski, R. A. King, E. F. Valeev,
    F. A. Evangelista, J. M. Turney, T. D. Crawford, and C. D. Sherrill,
    J. Chem. Theory Comput. 13(7) pp 3185--3197 (2017).
    (doi: 10.1021/acs.jctc.7b00174)


                         Additional Contributions by
    P. Kraus, H. Kruse, M. H. Lechner, M. C. Schieber, and R. A. Shaw

    -----------------------------------------------------------------------


    Psi4 started on: Friday, 22 March 2019 09:37AM

    Process ID: 1336
    Host:       DESKTOP-QL22TIG
    PSIDATADIR: /home/wderricotte/src/psi4conda/share/psi4
    Memory:     500.0 MiB
    Threads:    1
    
  ==> Input File <==

--------------------------------------------------------------------------
molecule{
0 1
C       -0.9490888051      0.6023292505      0.0000000000                 
O       -2.1457191144      0.5725768230      0.0000000000                 
O        0.0143838518      1.3126313941     -0.0000000000                 
H       -0.5930101405     -1.2414622622      0.4416875479                 
H       -1.9059447797     -1.0210696318      0.2936549737                 
}

set{
   basis 3-21G
   freeze_core True
   opt_type ts
}


set_num_threads(1)
optimize('b3lyp')
--------------------------------------------------------------------------
  Threads set to 1 by Python driver.
gradient() will perform analytic gradient computation.

*** tstart() called on DESKTOP-QL22TIG
*** at Fri Mar 22 09:37:53 2019

   => Loading Basis Set <=

    Name: 3-21G
    Role: ORBITAL
    Keyword: BASIS
    atoms 1   entry C          line    68 file /home/wderricotte/src/psi4conda/share/psi4/basis/3-21g.gbs 
    atoms 2-3 entry O          line    90 file /home/wderricotte/src/psi4conda/share/psi4/basis/3-21g.gbs 
    atoms 4-5 entry H          line    21 file /home/wderricotte/src/psi4conda/share/psi4/basis/3-21g.gbs 


         ---------------------------------------------------------
                                   SCF
            by Justin Turney, Rob Parrish, Andy Simmonett
                             and Daniel Smith
                              RKS Reference
                        1 Threads,    500 MiB Core
         ---------------------------------------------------------

  ==> Geometry <==

    Molecular point group: c1
    Full point group: C1

    Geometry (in Angstrom), charge = 0, multiplicity = 1:

       Center              X                  Y                   Z               Mass       
    ------------   -----------------  -----------------  -----------------  -----------------
         C            0.094223888554    -0.160655066403    -0.016108876848    12.000000000000
         O           -1.102406420746    -0.190407493903    -0.016108876848    15.994914619560
         O            1.057696545454     0.549647077197    -0.016108876848    15.994914619560
         H            0.450302553154    -2.004446579103     0.425578671052     1.007825032070
         H           -0.862632086046    -1.784053948703     0.277546096852     1.007825032070

  Running in c1 symmetry.

  Rotational constants: A =      2.19292  B =      0.38317  C =      0.32667 [cm^-1]
  Rotational constants: A =  65742.15855  B =  11487.01528  C =   9793.29116 [MHz]
  Nuclear repulsion =   68.290323593003095

  Charge       = 0
  Multiplicity = 1
  Electrons    = 24
  Nalpha       = 12
  Nbeta        = 12

  ==> Algorithm <==

  SCF Algorithm Type is DF.
  DIIS enabled.
  MOM disabled.
  Fractional occupation disabled.
  Guess Type is SAD.
  Energy threshold   = 1.00e-08
  Density threshold  = 1.00e-08
  Integral threshold = 0.00e+00

  ==> Primary Basis <==

  Basis Set: 3-21G
    Blend: 3-21G
    Number of shells: 19
    Number of basis function: 31
    Number of Cartesian functions: 31
    Spherical Harmonics?: false
    Max angular momentum: 1

  ==> DFT Potential <==

   => Composite Functional: B3LYP <= 

    B3LYP Hyb-GGA Exchange-Correlation Functional

    P. J. Stephens, F. J. Devlin, C. F. Chabalowski, and M. J. Frisch, J. Phys. Chem. 98, 11623 (1994)

    Deriv               =              1
    GGA                 =           TRUE
    Meta                =          FALSE

    Exchange Hybrid     =           TRUE
    MP2 Hybrid          =          FALSE

   => Exchange Functionals <=

    0.0800   Slater exchange
    0.7200         Becke 88

   => Exact (HF) Exchange <=

    0.2000               HF 

   => Correlation Functionals <=

    0.1900   Vosko, Wilk & Nusair (VWN5_RPA)
    0.8100   Lee, Yang & Parr

   => Molecular Quadrature <=

    Radial Scheme       =       TREUTLER
    Pruning Scheme      =           FLAT
    Nuclear Scheme      =       TREUTLER

    BS radius alpha     =              1
    Pruning alpha       =              1
    Radial Points       =             75
    Spherical Points    =            302
    Total Points        =         107817
    Total Blocks        =            871
    Max Points          =            256
    Max Functions       =             30

   => Loading Basis Set <=

    Name: (3-21G AUX)
    Role: JKFIT
    Keyword: DF_BASIS_SCF
    atoms 1   entry C          line   203 file /home/wderricotte/src/psi4conda/share/psi4/basis/def2-svp-jkfit.gbs 
    atoms 2-3 entry O          line   323 file /home/wderricotte/src/psi4conda/share/psi4/basis/def2-svp-jkfit.gbs 
    atoms 4-5 entry H          line    23 file /home/wderricotte/src/psi4conda/share/psi4/basis/def2-svp-jkfit.gbs 

  ==> Pre-Iterations <==

   -------------------------------------------------------
    Irrep   Nso     Nmo     Nalpha   Nbeta   Ndocc  Nsocc
   -------------------------------------------------------
     A         31      31       0       0       0       0
   -------------------------------------------------------
    Total      31      31      12      12      12       0
   -------------------------------------------------------

  ==> Integral Setup <==

  ==> DiskDFJK: Density-Fitted J/K Matrices <==

    J tasked:                  Yes
    K tasked:                  Yes
    wK tasked:                  No
    OpenMP threads:              1
    Integrals threads:           1
    Memory (MB):               375
    Algorithm:                Core
    Integral Cache:           NONE
    Schwarz Cutoff:          1E-12
    Fitting Condition:       1E-12

   => Auxiliary Basis Set <=

  Basis Set: (3-21G AUX)
    Blend: DEF2-SVP-JKFIT
    Number of shells: 87
    Number of basis function: 315
    Number of Cartesian functions: 315
    Spherical Harmonics?: false
    Max angular momentum: 4

  Minimum eigenvalue in the overlap matrix is 2.9910256108E-02.
  Using Symmetric Orthogonalization.

  SCF Guess: Superposition of Atomic Densities via on-the-fly atomic UHF.

  ==> Iterations <==

                           Total Energy        Delta E     RMS |[F,P]|

   @DF-RKS iter   0:  -189.36640534017900   -1.89366e+02   1.00390e-01 
   @DF-RKS iter   1:  -188.41852573303734    9.47880e-01   1.80757e-02 
   @DF-RKS iter   2:  -187.76637031934715    6.52155e-01   4.54011e-02 DIIS
   @DF-RKS iter   3:  -188.51173421828520   -7.45364e-01   1.06870e-02 DIIS
   @DF-RKS iter   4:  -188.55310143943848   -4.13672e-02   1.86180e-03 DIIS
   @DF-RKS iter   5:  -188.55445968122530   -1.35824e-03   6.88349e-04 DIIS
   @DF-RKS iter   6:  -188.55473430572678   -2.74625e-04   1.35200e-04 DIIS
   @DF-RKS iter   7:  -188.55474308620705   -8.78048e-06   8.52100e-06 DIIS
   @DF-RKS iter   8:  -188.55474314181876   -5.56117e-08   2.14113e-06 DIIS
   @DF-RKS iter   9:  -188.55474314605135   -4.23259e-09   8.63711e-07 DIIS
   @DF-RKS iter  10:  -188.55474314667501   -6.23658e-10   1.74636e-07 DIIS
   @DF-RKS iter  11:  -188.55474314669252   -1.75078e-11   2.09599e-08 DIIS
   @DF-RKS iter  12:  -188.55474314669294   -4.26326e-13   1.75314e-09 DIIS

  ==> Post-Iterations <==

    Orbital Energies [Eh]
    ---------------------

    Doubly Occupied:                                                      

       1A    -19.135608     2A    -19.114169     3A    -10.340730  
       4A     -1.176974     5A     -1.118453     6A     -0.555398  
       7A     -0.546706     8A     -0.512649     9A     -0.500409  
      10A     -0.383082    11A     -0.352958    12A     -0.299331  

    Virtual:                                                              

      13A     -0.104571    14A     -0.007696    15A      0.017313  
      16A      0.236501    17A      0.462211    18A      0.626080  
      19A      0.700419    20A      0.771990    21A      0.912324  
      22A      1.005017    23A      1.062398    24A      1.382654  
      25A      1.441130    26A      1.503556    27A      1.526045  
      28A      1.550884    29A      1.593431    30A      3.014940  
      31A      3.212816  

    Final Occupation by Irrep:
              A 
    DOCC [    12 ]

  Energy converged.

  @DF-RKS Final Energy:  -188.55474314669294

   => Energetics <=

    Nuclear Repulsion Energy =             68.2903235930030945
    One-Electron Energy =                -392.2179854856091197
    Two-Electron Energy =                 154.0250096280721266
    DFT Exchange-Correlation Energy =     -18.6520908821590510
    Empirical Dispersion Energy =           0.0000000000000000
    VV10 Nonlocal Energy =                  0.0000000000000000
    Total Energy =                       -188.5547431466929424



Properties will be evaluated at   0.000000,   0.000000,   0.000000 [a0]

Properties computed using the SCF density matrix

  Nuclear Dipole Moment: [e a0]
     X:    -0.3868      Y:    -3.5499      Z:     0.6590

  Electronic Dipole Moment: [e a0]
     X:     0.2241      Y:     3.3130      Z:    -0.6905

  Dipole Moment: [e a0]
     X:    -0.1627      Y:    -0.2369      Z:    -0.0315     Total:     0.2891

  Dipole Moment: [D]
     X:    -0.4135      Y:    -0.6021      Z:    -0.0801     Total:     0.7348


*** tstop() called on DESKTOP-QL22TIG at Fri Mar 22 09:37:56 2019
Module time:
	user time   =       2.28 seconds =       0.04 minutes
	system time =       0.35 seconds =       0.01 minutes
	total time  =          3 seconds =       0.05 minutes
Total time:
	user time   =       2.28 seconds =       0.04 minutes
	system time =       0.35 seconds =       0.01 minutes
	total time  =          3 seconds =       0.05 minutes

*** tstart() called on DESKTOP-QL22TIG
*** at Fri Mar 22 09:37:56 2019


         ------------------------------------------------------------
                                   SCF GRAD                          
                          Rob Parrish, Justin Turney,                
                       Andy Simmonett, and Alex Sokolov              
         ------------------------------------------------------------

  ==> Geometry <==

    Molecular point group: c1
    Full point group: C1

    Geometry (in Angstrom), charge = 0, multiplicity = 1:

       Center              X                  Y                   Z               Mass       
    ------------   -----------------  -----------------  -----------------  -----------------
         C            0.094223888554    -0.160655066403    -0.016108876848    12.000000000000
         O           -1.102406420746    -0.190407493903    -0.016108876848    15.994914619560
         O            1.057696545454     0.549647077197    -0.016108876848    15.994914619560
         H            0.450302553154    -2.004446579103     0.425578671052     1.007825032070
         H           -0.862632086046    -1.784053948703     0.277546096852     1.007825032070

  Nuclear repulsion =   68.290323593003095

  ==> Basis Set <==

  Basis Set: 3-21G
    Blend: 3-21G
    Number of shells: 19
    Number of basis function: 31
    Number of Cartesian functions: 31
    Spherical Harmonics?: false
    Max angular momentum: 1

  ==> DFJKGrad: Density-Fitted SCF Gradients <==

    Gradient:                    1
    J tasked:                  Yes
    K tasked:                  Yes
    wK tasked:                  No
    OpenMP threads:              1
    Integrals threads:           1
    Memory (MB):               375
    Schwarz Cutoff:          0E+00
    Fitting Condition:       1E-12

   => Auxiliary Basis Set <=

  Basis Set: (3-21G AUX)
    Blend: DEF2-SVP-JKFIT
    Number of shells: 87
    Number of basis function: 315
    Number of Cartesian functions: 315
    Spherical Harmonics?: false
    Max angular momentum: 4

  ==> DFT Potential <==

   => Composite Functional: B3LYP <= 

    B3LYP Hyb-GGA Exchange-Correlation Functional

    P. J. Stephens, F. J. Devlin, C. F. Chabalowski, and M. J. Frisch, J. Phys. Chem. 98, 11623 (1994)

    Deriv               =              1
    GGA                 =           TRUE
    Meta                =          FALSE

    Exchange Hybrid     =           TRUE
    MP2 Hybrid          =          FALSE

   => Exchange Functionals <=

    0.0800   Slater exchange
    0.7200         Becke 88

   => Exact (HF) Exchange <=

    0.2000               HF 

   => Correlation Functionals <=

    0.1900   Vosko, Wilk & Nusair (VWN5_RPA)
    0.8100   Lee, Yang & Parr

   => Molecular Quadrature <=

    Radial Scheme       =       TREUTLER
    Pruning Scheme      =           FLAT
    Nuclear Scheme      =       TREUTLER

    BS radius alpha     =              1
    Pruning alpha       =              1
    Radial Points       =             75
    Spherical Points    =            302
    Total Points        =         107817
    Total Blocks        =            871
    Max Points          =            256
    Max Functions       =             30


  -Total Gradient:
     Atom            X                  Y                   Z
    ------   -----------------  -----------------  -----------------
       1       -0.022010204711    -0.082349534330    -0.002929937669
       2        0.042807020668     0.019145733540     0.006373718118
       3       -0.008517391504     0.041529828005     0.001091692850
       4        0.061185421649     0.002088971379     0.005887576401
       5       -0.073456390377     0.019582888115    -0.010440361348


*** tstop() called on DESKTOP-QL22TIG at Fri Mar 22 09:37:57 2019
Module time:
	user time   =       0.38 seconds =       0.01 minutes
	system time =       0.00 seconds =       0.00 minutes
	total time  =          1 seconds =       0.02 minutes
Total time:
	user time   =       2.66 seconds =       0.04 minutes
	system time =       0.35 seconds =       0.01 minutes
	total time  =          4 seconds =       0.07 minutes

			-----------------------------------------
			 OPTKING 2.0: for geometry optimizations 
			  - R.A. King,  Bethel University        
			-----------------------------------------

	Internal coordinates to be generated automatically.
	Detected frag 1 with atoms:  1 2 3
	Detected frag 2 with atoms:  4
	Detected frag 3 with atoms:  5
	Unifying fragments since fragment_mode == SINGLE
	Connecting fragments 1 and 3
	Increasing scaling to  2.200 to connect fragments.
	Connecting fragments 1 and 2
	Connecting fragments 2 and 3
	---Fragment 1 Bond Connectivity---
	 1 : 2 3 4
	 2 : 1 5
	 3 : 1
	 4 : 1 5
	 5 : 2 4

	---Fragment 1 Geometry and Gradient---
	 C           0.1780573445       -0.3035940774       -0.0304413656
	 O          -2.0832462223       -0.3598180171       -0.0304413656
	 O           1.9987568026        1.0386824456       -0.0304413656
	 H           0.8509485024       -3.7878550825        0.8042271363
	 H          -1.6301383961       -3.3713733693        0.5244861123
	            -0.0220102047       -0.0823495343       -0.0029299377
	             0.0428070207        0.0191457335        0.0063737181
	            -0.0085173915        0.0415298280        0.0010916928
	             0.0611854216        0.0020889714        0.0058875764
	            -0.0734563904        0.0195828881       -0.0104403613

	Previous optimization step data not found.  Starting new optimization.

	---Fragment 1 Intrafragment Coordinates---
	 - Coordinate -           - BOHR/RAD -       - ANG/DEG -
	 R(1,2)           =         2.262002	       1.197000
	 R(1,3)           =         2.262002	       1.197000
	 R(1,4)           =         3.645481	       1.929105
	 R(2,5)           =         3.095596	       1.638119
	 R(4,5)           =         2.531305	       1.339509
	 B(1,2,5)         =         1.448345	      82.984059
	 B(1,4,5)         =         1.198796	      68.685968
	 B(2,1,3)         =         2.531172	     145.025481
	 B(2,1,4)         =         1.732266	      99.251516
	 B(2,5,4)         =         1.900058	     108.865300
	 B(3,1,4)         =         2.002686	     114.745453
	 D(1,2,5,4)       =         0.078903	       4.520795
	 D(1,4,5,2)       =        -0.052129	      -2.986788
	 D(2,1,4,5)       =         0.068420	       3.920166
	 D(3,1,2,5)       =        -2.959980	    -169.594362
	 D(3,1,4,5)       =         3.063067	     175.500839
	 D(4,1,2,5)       =        -0.052497	      -3.007876

	Current energy   :      -188.5547431467

	Generating empirical Hessian (Schlegel '84) for each fragment.
	Taking PRFO optimization step.
	Maximizing along 1 lowest eigenvalue of Hessian.

 RFO min eigenvalues
 -0.053068 -0.000000 -0.000000 -0.000000 -0.000000  0.000000  0.000000  0.000000
  0.007147  0.025378  0.059382  0.100773  0.119949  0.160922  0.227166  0.985621
  1.063756

 RFO max eigenvalues
 -0.000000  0.000000
	Change in coordinate exceeds step limit of    0.50000.
	Scaling displacements by    0.87235
	|RFO target step|  :        0.5000000000
	RFO gradient       :       -0.0925878710
	RFO hessian        :        0.1104240227
	Projected Delta(E) :       -0.0259927461

	Back-transformation to cartesian coordinates...
	Could not converge backtransformation.
	Using first guess instead.

	--- Internal Coordinate Step in ANG or DEG, aJ/ANG or AJ/DEG ---
	 ---------------------------------------------------------------------------
	   Coordinate                Previous        Force       Change         New 
	   ----------                --------       ------       ------       ------
	    1 R(1,2)          =      1.197000     0.273271     0.015115     1.212115
	    2 R(1,3)          =      1.197000    -0.146531     0.002109     1.199109
	    3 R(1,4)          =      1.929105     0.081250     0.033586     1.962691
	    4 R(2,5)          =      1.638119     0.112795     0.063295     1.701414
	    5 R(4,5)          =      1.339509    -0.524849    -0.210113     1.129396
	    6 B(1,2,5)        =     82.984059    -0.000623    -2.410331    80.573728
	    7 B(1,4,5)        =     68.685968     0.000834     2.370889    71.056857
	    8 B(2,1,3)        =    145.025481     0.004093    10.557502   155.582983
	    9 B(2,1,4)        =     99.251516    -0.001580    -4.566520    94.684996
	   10 B(2,5,4)        =    108.865300     0.001400     4.751975   113.617274
	   11 B(3,1,4)        =    114.745453    -0.002364    -5.333641   109.411812
	   12 D(1,2,5,4)      =      4.520795    -0.000061    -1.785303     2.735492
	   13 D(1,4,5,2)      =     -2.986788     0.000034     1.225185    -1.761604
	   14 D(2,1,4,5)      =      3.920166    -0.000068    -1.646726     2.273441
	   15 D(3,1,2,5)      =   -169.594362     0.000020    -2.681935  -172.276297
	   16 D(3,1,4,5)      =    175.500839     0.000201     2.767190   178.268029
	   17 D(4,1,2,5)      =     -3.007876     0.000075     1.561189    -1.446686
	 ---------------------------------------------------------------------------
	Successfully symmetrized geometry.

  ==> Convergence Check <==

  Measures of convergence in internal coordinates in au.
  Criteria marked as inactive (o), active & met (*), and active & unmet ( ).
  --------------------------------------------------------------------------------------------- ~
   Step     Total Energy     Delta E     MAX Force     RMS Force      MAX Disp      RMS Disp    ~
  --------------------------------------------------------------------------------------------- ~
    Convergence Criteria    1.00e-06 *    3.00e-04 *             o    1.20e-03 *             o  ~
  --------------------------------------------------------------------------------------------- ~
      1    -188.55474315   -1.89e+02      6.37e-02      2.52e-02 o    3.97e-01      1.20e-01 o  ~
  ---------------------------------------------------------------------------------------------

	Writing optimization data to binary file.
	Structure for next step:
	Cartesian Geometry (in Angstrom)
	    C     0.0565301369  -0.0920262887  -0.0070871385
	    O    -1.1510778152  -0.1939702141  -0.0297223714
	    O     1.1032072161   0.4930230431  -0.0139715441
	    H     0.3692272421  -1.9834749645   0.4133878744
	    H    -0.7407022995  -1.8134675867   0.2921913170
			--------------------------
			 OPTKING Finished Execution 
			--------------------------

    Structure for next step:
    Molecular point group: c1
    Full point group: C1

    Geometry (in Angstrom), charge = 0, multiplicity = 1:

    C            0.066566036347    -0.088817002536    -0.005504158785
    O           -1.141041915735    -0.190760928013    -0.028139391746
    O            1.113243115521     0.496232329225    -0.012388564438
    H            0.379263141610    -1.980265678421     0.414970854120
    H           -0.730666400058    -1.810258300559     0.293774296636

gradient() will perform analytic gradient computation.

*** tstart() called on DESKTOP-QL22TIG
*** at Fri Mar 22 09:37:57 2019

   => Loading Basis Set <=

    Name: 3-21G
    Role: ORBITAL
    Keyword: BASIS
    atoms 1   entry C          line    68 file /home/wderricotte/src/psi4conda/share/psi4/basis/3-21g.gbs 
    atoms 2-3 entry O          line    90 file /home/wderricotte/src/psi4conda/share/psi4/basis/3-21g.gbs 
    atoms 4-5 entry H          line    21 file /home/wderricotte/src/psi4conda/share/psi4/basis/3-21g.gbs 


         ---------------------------------------------------------
                                   SCF
            by Justin Turney, Rob Parrish, Andy Simmonett
                             and Daniel Smith
                              RKS Reference
                        1 Threads,    500 MiB Core
         ---------------------------------------------------------

  ==> Geometry <==

    Molecular point group: c1
    Full point group: C1

    Geometry (in Angstrom), charge = 0, multiplicity = 1:

       Center              X                  Y                   Z               Mass       
    ------------   -----------------  -----------------  -----------------  -----------------
         C            0.066566036347    -0.088817002536    -0.005504158785    12.000000000000
         O           -1.141041915735    -0.190760928013    -0.028139391746    15.994914619560
         O            1.113243115521     0.496232329225    -0.012388564438    15.994914619560
         H            0.379263141610    -1.980265678421     0.414970854120     1.007825032070
         H           -0.730666400058    -1.810258300559     0.293774296636     1.007825032070

  Running in c1 symmetry.

  Rotational constants: A =      2.29295  B =      0.36497  C =      0.31498 [cm^-1]
  Rotational constants: A =  68740.96624  B =  10941.53121  C =   9442.95058 [MHz]
  Nuclear repulsion =   67.551276994744569

  Charge       = 0
  Multiplicity = 1
  Electrons    = 24
  Nalpha       = 12
  Nbeta        = 12

  ==> Algorithm <==

  SCF Algorithm Type is DF.
  DIIS enabled.
  MOM disabled.
  Fractional occupation disabled.
  Guess Type is READ.
  Energy threshold   = 1.00e-08
  Density threshold  = 1.00e-08
  Integral threshold = 0.00e+00

  ==> Primary Basis <==

  Basis Set: 3-21G
    Blend: 3-21G
    Number of shells: 19
    Number of basis function: 31
    Number of Cartesian functions: 31
    Spherical Harmonics?: false
    Max angular momentum: 1

  ==> DFT Potential <==

   => Composite Functional: B3LYP <= 

    B3LYP Hyb-GGA Exchange-Correlation Functional

    P. J. Stephens, F. J. Devlin, C. F. Chabalowski, and M. J. Frisch, J. Phys. Chem. 98, 11623 (1994)

    Deriv               =              1
    GGA                 =           TRUE
    Meta                =          FALSE

    Exchange Hybrid     =           TRUE
    MP2 Hybrid          =          FALSE

   => Exchange Functionals <=

    0.0800   Slater exchange
    0.7200         Becke 88

   => Exact (HF) Exchange <=

    0.2000               HF 

   => Correlation Functionals <=

    0.1900   Vosko, Wilk & Nusair (VWN5_RPA)
    0.8100   Lee, Yang & Parr

   => Molecular Quadrature <=

    Radial Scheme       =       TREUTLER
    Pruning Scheme      =           FLAT
    Nuclear Scheme      =       TREUTLER

    BS radius alpha     =              1
    Pruning alpha       =              1
    Radial Points       =             75
    Spherical Points    =            302
    Total Points        =         107798
    Total Blocks        =            870
    Max Points          =            256
    Max Functions       =             30

   => Loading Basis Set <=

    Name: (3-21G AUX)
    Role: JKFIT
    Keyword: DF_BASIS_SCF
    atoms 1   entry C          line   203 file /home/wderricotte/src/psi4conda/share/psi4/basis/def2-svp-jkfit.gbs 
    atoms 2-3 entry O          line   323 file /home/wderricotte/src/psi4conda/share/psi4/basis/def2-svp-jkfit.gbs 
    atoms 4-5 entry H          line    23 file /home/wderricotte/src/psi4conda/share/psi4/basis/def2-svp-jkfit.gbs 

  Reading orbitals from file 180, no projection.

  ==> Pre-Iterations <==

   -------------------------------------------------------
    Irrep   Nso     Nmo     Nalpha   Nbeta   Ndocc  Nsocc
   -------------------------------------------------------
     A         31      31       0       0       0       0
   -------------------------------------------------------
    Total      31      31      12      12      12       0
   -------------------------------------------------------

  ==> Integral Setup <==

  ==> DiskDFJK: Density-Fitted J/K Matrices <==

    J tasked:                  Yes
    K tasked:                  Yes
    wK tasked:                  No
    OpenMP threads:              1
    Integrals threads:           1
    Memory (MB):               375
    Algorithm:                Core
    Integral Cache:           NONE
    Schwarz Cutoff:          1E-12
    Fitting Condition:       1E-12

   => Auxiliary Basis Set <=

  Basis Set: (3-21G AUX)
    Blend: DEF2-SVP-JKFIT
    Number of shells: 87
    Number of basis function: 315
    Number of Cartesian functions: 315
    Spherical Harmonics?: false
    Max angular momentum: 4

  Minimum eigenvalue in the overlap matrix is 2.5025361009E-02.
  Using Symmetric Orthogonalization.

  SCF Guess: Orbitals guess was supplied from a previous computation.

  ==> Iterations <==

                           Total Energy        Delta E     RMS |[F,P]|

   @DF-RKS iter   0:  -188.59194223879692   -1.88592e+02   8.03203e-03 
   @DF-RKS iter   1:  -188.60015727880597   -8.21504e-03   1.51517e-03 
   @DF-RKS iter   2:  -188.59818612162201    1.97116e-03   3.15012e-03 DIIS
   @DF-RKS iter   3:  -188.60174368600275   -3.55756e-03   5.84551e-04 DIIS
   @DF-RKS iter   4:  -188.60182986531800   -8.61793e-05   4.75797e-04 DIIS
   @DF-RKS iter   5:  -188.60191300171923   -8.31364e-05   5.96630e-05 DIIS
   @DF-RKS iter   6:  -188.60191482550698   -1.82379e-06   1.54683e-05 DIIS
   @DF-RKS iter   7:  -188.60191497044448   -1.44938e-07   1.97467e-06 DIIS
   @DF-RKS iter   8:  -188.60191497324490   -2.80042e-09   5.54477e-07 DIIS
   @DF-RKS iter   9:  -188.60191497345983   -2.14925e-10   1.21861e-07 DIIS
   @DF-RKS iter  10:  -188.60191497346679   -6.96332e-12   1.49765e-08 DIIS
   @DF-RKS iter  11:  -188.60191497346668    1.13687e-13   9.08279e-10 DIIS

  ==> Post-Iterations <==

    Orbital Energies [Eh]
    ---------------------

    Doubly Occupied:                                                      

       1A    -19.141093     2A    -19.118913     3A    -10.340576  
       4A     -1.168197     5A     -1.121487     6A     -0.556767  
       7A     -0.542693     8A     -0.510117     9A     -0.501013  
      10A     -0.389906    11A     -0.355054    12A     -0.317946  

    Virtual:                                                              

      13A     -0.069919    14A      0.000612    15A      0.040239  
      16A      0.171590    17A      0.497236    18A      0.627206  
      19A      0.687715    20A      0.772568    21A      0.952817  
      22A      0.968912    23A      1.051427    24A      1.372811  
      25A      1.422370    26A      1.482653    27A      1.535296  
      28A      1.561238    29A      1.603094    30A      2.955364  
      31A      3.372713  

    Final Occupation by Irrep:
              A 
    DOCC [    12 ]

  Energy converged.

  @DF-RKS Final Energy:  -188.60191497346668

   => Energetics <=

    Nuclear Repulsion Energy =             67.5512769947445690
    One-Electron Energy =                -390.7740109041526466
    Two-Electron Energy =                 153.2798209291047158
    DFT Exchange-Correlation Energy =     -18.6590019931633044
    Empirical Dispersion Energy =           0.0000000000000000
    VV10 Nonlocal Energy =                  0.0000000000000000
    Total Energy =                       -188.6019149734666769



Properties will be evaluated at   0.000000,   0.000000,   0.000000 [a0]

Properties computed using the SCF density matrix

  Nuclear Dipole Moment: [e a0]
     X:    -0.3296      Y:    -3.5520      Z:     0.6642

  Electronic Dipole Moment: [e a0]
     X:     0.2753      Y:     3.4319      Z:    -0.6783

  Dipole Moment: [e a0]
     X:    -0.0542      Y:    -0.1202      Z:    -0.0141     Total:     0.1326

  Dipole Moment: [D]
     X:    -0.1378      Y:    -0.3055      Z:    -0.0358     Total:     0.3370


*** tstop() called on DESKTOP-QL22TIG at Fri Mar 22 09:37:59 2019
Module time:
	user time   =       1.83 seconds =       0.03 minutes
	system time =       0.13 seconds =       0.00 minutes
	total time  =          2 seconds =       0.03 minutes
Total time:
	user time   =       4.49 seconds =       0.07 minutes
	system time =       0.53 seconds =       0.01 minutes
	total time  =          6 seconds =       0.10 minutes

*** tstart() called on DESKTOP-QL22TIG
*** at Fri Mar 22 09:37:59 2019


         ------------------------------------------------------------
                                   SCF GRAD                          
                          Rob Parrish, Justin Turney,                
                       Andy Simmonett, and Alex Sokolov              
         ------------------------------------------------------------

  ==> Geometry <==

    Molecular point group: c1
    Full point group: C1

    Geometry (in Angstrom), charge = 0, multiplicity = 1:

       Center              X                  Y                   Z               Mass       
    ------------   -----------------  -----------------  -----------------  -----------------
         C            0.066566036347    -0.088817002536    -0.005504158785    12.000000000000
         O           -1.141041915735    -0.190760928013    -0.028139391746    15.994914619560
         O            1.113243115521     0.496232329225    -0.012388564438    15.994914619560
         H            0.379263141610    -1.980265678421     0.414970854120     1.007825032070
         H           -0.730666400058    -1.810258300559     0.293774296636     1.007825032070

  Nuclear repulsion =   67.551276994744569

  ==> Basis Set <==

  Basis Set: 3-21G
    Blend: 3-21G
    Number of shells: 19
    Number of basis function: 31
    Number of Cartesian functions: 31
    Spherical Harmonics?: false
    Max angular momentum: 1

  ==> DFJKGrad: Density-Fitted SCF Gradients <==

    Gradient:                    1
    J tasked:                  Yes
    K tasked:                  Yes
    wK tasked:                  No
    OpenMP threads:              1
    Integrals threads:           1
    Memory (MB):               375
    Schwarz Cutoff:          0E+00
    Fitting Condition:       1E-12

   => Auxiliary Basis Set <=

  Basis Set: (3-21G AUX)
    Blend: DEF2-SVP-JKFIT
    Number of shells: 87
    Number of basis function: 315
    Number of Cartesian functions: 315
    Spherical Harmonics?: false
    Max angular momentum: 4

  ==> DFT Potential <==

   => Composite Functional: B3LYP <= 

    B3LYP Hyb-GGA Exchange-Correlation Functional

    P. J. Stephens, F. J. Devlin, C. F. Chabalowski, and M. J. Frisch, J. Phys. Chem. 98, 11623 (1994)

    Deriv               =              1
    GGA                 =           TRUE
    Meta                =          FALSE

    Exchange Hybrid     =           TRUE
    MP2 Hybrid          =          FALSE

   => Exchange Functionals <=

    0.0800   Slater exchange
    0.7200         Becke 88

   => Exact (HF) Exchange <=

    0.2000               HF 

   => Correlation Functionals <=

    0.1900   Vosko, Wilk & Nusair (VWN5_RPA)
    0.8100   Lee, Yang & Parr

   => Molecular Quadrature <=

    Radial Scheme       =       TREUTLER
    Pruning Scheme      =           FLAT
    Nuclear Scheme      =       TREUTLER

    BS radius alpha     =              1
    Pruning alpha       =              1
    Radial Points       =             75
    Spherical Points    =            302
    Total Points        =         107798
    Total Blocks        =            870
    Max Points          =            256
    Max Functions       =             30


  -Total Gradient:
     Atom            X                  Y                   Z
    ------   -----------------  -----------------  -----------------
       1        0.013196279721    -0.075820814321     0.005968573443
       2       -0.012810572580    -0.005940229928     0.005089381108
       3        0.014797139880     0.038363902132    -0.001613975726
       4        0.074339152114     0.009668337322     0.004480079580
       5       -0.089524177610     0.033732281999    -0.013924735433


*** tstop() called on DESKTOP-QL22TIG at Fri Mar 22 09:37:59 2019
Module time:
	user time   =       0.34 seconds =       0.01 minutes
	system time =       0.03 seconds =       0.00 minutes
	total time  =          0 seconds =       0.00 minutes
Total time:
	user time   =       4.83 seconds =       0.08 minutes
	system time =       0.56 seconds =       0.01 minutes
	total time  =          6 seconds =       0.10 minutes

			-----------------------------------------
			 OPTKING 2.0: for geometry optimizations 
			  - R.A. King,  Bethel University        
			-----------------------------------------

	Previous internal coordinate definitions found.
	---Fragment 1 Geometry and Gradient---
	 C           0.1257915784       -0.1678398107       -0.0104013527
	 O          -2.1562567269       -0.3604859108       -0.0531757439
	 O           2.1037246077        0.9377432005       -0.0234109940
	 H           0.7167034699       -3.7421598026        0.7841812674
	 H          -1.3807593906       -3.4208924178        0.5551529655
	             0.0131962797       -0.0758208143        0.0059685734
	            -0.0128105726       -0.0059402299        0.0050893811
	             0.0147971399        0.0383639021       -0.0016139757
	             0.0743391521        0.0096683373        0.0044800796
	            -0.0895241776        0.0337322820       -0.0139247354

	---Fragment 1 Intrafragment Coordinates---
	 - Coordinate -           - BOHR/RAD -       - ANG/DEG -
	 R(1,2)           =         2.290565	       1.212115
	 R(1,3)           =         2.265988	       1.199109
	 R(1,4)           =         3.708949	       1.962691
	 R(2,5)           =         3.215206	       1.701414
	 R(4,5)           =         2.134249	       1.129396
	 B(1,2,5)         =         1.406277	      80.573728
	 B(1,4,5)         =         1.240176	      71.056857
	 B(2,1,3)         =         2.715435	     155.582983
	 B(2,1,4)         =         1.652565	      94.684996
	 B(2,5,4)         =         1.982996	     113.617274
	 B(3,1,4)         =         1.909596	     109.411812
	 D(1,2,5,4)       =         0.047743	       2.735492
	 D(1,4,5,2)       =        -0.030746	      -1.761604
	 D(2,1,4,5)       =         0.039679	       2.273441
	 D(3,1,2,5)       =        -3.006789	    -172.276297
	 D(3,1,4,5)       =         3.111364	     178.268029
	 D(4,1,2,5)       =        -0.025249	      -1.446686

	Current energy   :      -188.6019149735

	Energy change for the previous step:
		Projected    :        -0.0259927461
		Actual       :        -0.0471718268

	Performing Bofill update.
	Previous computed or guess Hessian on step 1.
	Steps to be used in Hessian update: 1
	Taking PRFO optimization step.
	Maximizing along 1 lowest eigenvalue of Hessian.

 RFO min eigenvalues
 -0.008775 -0.000000 -0.000000 -0.000000  0.000000  0.000000  0.000000  0.000000
  0.000000  0.008454  0.026009  0.063395  0.105384  0.158969  0.197045  0.972664
  1.062558

 RFO max eigenvalues
 -0.116416  0.078035
	Change in coordinate exceeds step limit of    0.50000.
	Scaling displacements by    0.55164
	|RFO target step|  :        0.5000000000
	RFO gradient       :        0.0764132036
	RFO hessian        :       -0.0222501495
	Projected Delta(E) :        0.0283402665

	Back-transformation to cartesian coordinates...
	Could not converge backtransformation.
	Using first guess instead.

	--- Internal Coordinate Step in ANG or DEG, aJ/ANG or AJ/DEG ---
	 ---------------------------------------------------------------------------
	   Coordinate                Previous        Force       Change         New 
	   ----------                --------       ------       ------       ------
	    1 R(1,2)          =      1.212115    -0.179955     0.006756     1.218871
	    2 R(1,3)          =      1.199109    -0.260696    -0.003558     1.195551
	    3 R(1,4)          =      1.962691     0.160568    -0.097821     1.864870
	    4 R(2,5)          =      1.701414     0.224005    -0.130504     1.570910
	    5 R(4,5)          =      1.129396    -0.656369     0.171508     1.300903
	    6 B(1,2,5)        =     80.573728    -0.000203     1.859785    82.433513
	    7 B(1,4,5)        =     71.056857     0.000352    -1.830937    69.225920
	    8 B(2,1,3)        =    155.582983     0.002764    -2.072879   153.510104
	    9 B(2,1,4)        =     94.684996    -0.000995     3.158521    97.843517
	   10 B(2,5,4)        =    113.617274     0.000854    -3.232381   110.384894
	   11 B(3,1,4)        =    109.411812    -0.001725    -0.775541   108.636271
	   12 D(1,2,5,4)      =      2.735492    -0.000028    -6.005426    -3.269935
	   13 D(1,4,5,2)      =     -1.761604     0.000027     4.026886     2.265282
	   14 D(2,1,4,5)      =      2.273441    -0.000027    -5.036346    -2.762905
	   15 D(3,1,2,5)      =   -172.276297     0.000011    -3.989917  -176.266215
	   16 D(3,1,4,5)      =    178.268029     0.000092    -1.772744   176.495285
	   17 D(4,1,2,5)      =     -1.446686     0.000036     3.604418     2.157731
	 ---------------------------------------------------------------------------
	Successfully symmetrized geometry.

  ==> Convergence Check <==

  Measures of convergence in internal coordinates in au.
  Criteria marked as inactive (o), active & met (*), and active & unmet ( ).
  ---------------------------------------------------------------------------------------------
   Step     Total Energy     Delta E     MAX Force     RMS Force      MAX Disp      RMS Disp   
  ---------------------------------------------------------------------------------------------
    Convergence Criteria    1.00e-06 *    3.00e-04 *             o    1.20e-03 *             o
  ---------------------------------------------------------------------------------------------
      2    -188.60191497   -4.72e-02      7.97e-02      2.56e-02 o    3.24e-01      1.20e-01 o  ~
  ---------------------------------------------------------------------------------------------

	Writing optimization data to binary file.
	Structure for next step:
	Cartesian Geometry (in Angstrom)
	    C     0.0781514795  -0.1398175176   0.0216488124
	    O    -1.1346106503  -0.2405903475  -0.0469051674
	    O     1.1039804172   0.4737100814  -0.0028621676
	    H     0.4624011503  -1.9292713116   0.3793472331
	    H    -0.8225584189  -1.7379004850   0.3114843252
			--------------------------
			 OPTKING Finished Execution 
			--------------------------

    Structure for next step:
    Molecular point group: c1
    Full point group: C1

    Geometry (in Angstrom), charge = 0, multiplicity = 1:

    C            0.076305736714    -0.104062048242     0.018170991598
    O           -1.136456392995    -0.204834878141    -0.050382988190
    O            1.102134674417     0.509465550715    -0.006339988361
    H            0.460555407537    -1.893515842228     0.375869412335
    H           -0.824404161676    -1.702145015661     0.308006504401

gradient() will perform analytic gradient computation.

*** tstart() called on DESKTOP-QL22TIG
*** at Fri Mar 22 09:37:59 2019

   => Loading Basis Set <=

    Name: 3-21G
    Role: ORBITAL
    Keyword: BASIS
    atoms 1   entry C          line    68 file /home/wderricotte/src/psi4conda/share/psi4/basis/3-21g.gbs 
    atoms 2-3 entry O          line    90 file /home/wderricotte/src/psi4conda/share/psi4/basis/3-21g.gbs 
    atoms 4-5 entry H          line    21 file /home/wderricotte/src/psi4conda/share/psi4/basis/3-21g.gbs 


         ---------------------------------------------------------
                                   SCF
            by Justin Turney, Rob Parrish, Andy Simmonett
                             and Daniel Smith
                              RKS Reference
                        1 Threads,    500 MiB Core
         ---------------------------------------------------------

  ==> Geometry <==

    Molecular point group: c1
    Full point group: C1

    Geometry (in Angstrom), charge = 0, multiplicity = 1:

       Center              X                  Y                   Z               Mass       
    ------------   -----------------  -----------------  -----------------  -----------------
         C            0.076305736714    -0.104062048242     0.018170991598    12.000000000000
         O           -1.136456392995    -0.204834878141    -0.050382988190    15.994914619560
         O            1.102134674417     0.509465550715    -0.006339988361    15.994914619560
         H            0.460555407537    -1.893515842228     0.375869412335     1.007825032070
         H           -0.824404161676    -1.702145015661     0.308006504401     1.007825032070

  Running in c1 symmetry.

  Rotational constants: A =      2.49033  B =      0.36600  C =      0.31915 [cm^-1]
  Rotational constants: A =  74658.26387  B =  10972.37036  C =   9567.72741 [MHz]
  Nuclear repulsion =   67.918486712861039

  Charge       = 0
  Multiplicity = 1
  Electrons    = 24
  Nalpha       = 12
  Nbeta        = 12

  ==> Algorithm <==

  SCF Algorithm Type is DF.
  DIIS enabled.
  MOM disabled.
  Fractional occupation disabled.
  Guess Type is READ.
  Energy threshold   = 1.00e-08
  Density threshold  = 1.00e-08
  Integral threshold = 0.00e+00

  ==> Primary Basis <==

  Basis Set: 3-21G
    Blend: 3-21G
    Number of shells: 19
    Number of basis function: 31
    Number of Cartesian functions: 31
    Spherical Harmonics?: false
    Max angular momentum: 1

  ==> DFT Potential <==

   => Composite Functional: B3LYP <= 

    B3LYP Hyb-GGA Exchange-Correlation Functional

    P. J. Stephens, F. J. Devlin, C. F. Chabalowski, and M. J. Frisch, J. Phys. Chem. 98, 11623 (1994)

    Deriv               =              1
    GGA                 =           TRUE
    Meta                =          FALSE

    Exchange Hybrid     =           TRUE
    MP2 Hybrid          =          FALSE

   => Exchange Functionals <=

    0.0800   Slater exchange
    0.7200         Becke 88

   => Exact (HF) Exchange <=

    0.2000               HF 

   => Correlation Functionals <=

    0.1900   Vosko, Wilk & Nusair (VWN5_RPA)
    0.8100   Lee, Yang & Parr

   => Molecular Quadrature <=

    Radial Scheme       =       TREUTLER
    Pruning Scheme      =           FLAT
    Nuclear Scheme      =       TREUTLER

    BS radius alpha     =              1
    Pruning alpha       =              1
    Radial Points       =             75
    Spherical Points    =            302
    Total Points        =         107807
    Total Blocks        =            866
    Max Points          =            256
    Max Functions       =             30

   => Loading Basis Set <=

    Name: (3-21G AUX)
    Role: JKFIT
    Keyword: DF_BASIS_SCF
    atoms 1   entry C          line   203 file /home/wderricotte/src/psi4conda/share/psi4/basis/def2-svp-jkfit.gbs 
    atoms 2-3 entry O          line   323 file /home/wderricotte/src/psi4conda/share/psi4/basis/def2-svp-jkfit.gbs 
    atoms 4-5 entry H          line    23 file /home/wderricotte/src/psi4conda/share/psi4/basis/def2-svp-jkfit.gbs 

  Reading orbitals from file 180, no projection.

  ==> Pre-Iterations <==

   -------------------------------------------------------
    Irrep   Nso     Nmo     Nalpha   Nbeta   Ndocc  Nsocc
   -------------------------------------------------------
     A         31      31       0       0       0       0
   -------------------------------------------------------
    Total      31      31      12      12      12       0
   -------------------------------------------------------

  ==> Integral Setup <==

  ==> DiskDFJK: Density-Fitted J/K Matrices <==

    J tasked:                  Yes
    K tasked:                  Yes
    wK tasked:                  No
    OpenMP threads:              1
    Integrals threads:           1
    Memory (MB):               375
    Algorithm:                Core
    Integral Cache:           NONE
    Schwarz Cutoff:          1E-12
    Fitting Condition:       1E-12

   => Auxiliary Basis Set <=

  Basis Set: (3-21G AUX)
    Blend: DEF2-SVP-JKFIT
    Number of shells: 87
    Number of basis function: 315
    Number of Cartesian functions: 315
    Spherical Harmonics?: false
    Max angular momentum: 4

  Minimum eigenvalue in the overlap matrix is 2.5828985053E-02.
  Using Symmetric Orthogonalization.

  SCF Guess: Orbitals guess was supplied from a previous computation.

  ==> Iterations <==

                           Total Energy        Delta E     RMS |[F,P]|

   @DF-RKS iter   0:  -188.53265365013007   -1.88533e+02   4.23487e-03 
   @DF-RKS iter   1:  -188.56423663009213   -3.15830e-02   2.01405e-03 
   @DF-RKS iter   2:  -188.55890245864538    5.33417e-03   4.57317e-03 DIIS
   @DF-RKS iter   3:  -188.56661816573589   -7.71571e-03   5.80161e-04 DIIS
   @DF-RKS iter   4:  -188.56671816312536   -9.99974e-05   5.86587e-04 DIIS
   @DF-RKS iter   5:  -188.56684806963545   -1.29907e-04   5.39856e-05 DIIS
   @DF-RKS iter   6:  -188.56685077688616   -2.70725e-06   1.99856e-05 DIIS
   @DF-RKS iter   7:  -188.56685110280569   -3.25920e-07   2.43986e-06 DIIS
   @DF-RKS iter   8:  -188.56685110607779   -3.27211e-09   6.15909e-07 DIIS
   @DF-RKS iter   9:  -188.56685110629283   -2.15039e-10   7.53533e-08 DIIS
   @DF-RKS iter  10:  -188.56685110629618   -3.35376e-12   1.38167e-08 DIIS
   @DF-RKS iter  11:  -188.56685110629616    2.84217e-14   1.45961e-09 DIIS

  ==> Post-Iterations <==

    Orbital Energies [Eh]
    ---------------------

    Doubly Occupied:                                                      

       1A    -19.143684     2A    -19.119510     3A    -10.348205  
       4A     -1.172877     5A     -1.123849     6A     -0.561229  
       7A     -0.552453     8A     -0.512782     9A     -0.504826  
      10A     -0.392355    11A     -0.357818    12A     -0.294736  

    Virtual:                                                              

      13A     -0.087671    14A     -0.002558    15A      0.025865  
      16A      0.178733    17A      0.489465    18A      0.624407  
      19A      0.689781    20A      0.760664    21A      0.907859  
      22A      0.995290    23A      1.072387    24A      1.370224  
      25A      1.432021    26A      1.484621    27A      1.535054  
      28A      1.555798    29A      1.610796    30A      2.962101  
      31A      3.324931  

    Final Occupation by Irrep:
              A 
    DOCC [    12 ]

  Energy converged.

  @DF-RKS Final Energy:  -188.56685110629616

   => Energetics <=

    Nuclear Repulsion Energy =             67.9184867128610392
    One-Electron Energy =                -391.4068670323207471
    Two-Electron Energy =                 153.5678049830217446
    DFT Exchange-Correlation Energy =     -18.6462757698582315
    Empirical Dispersion Energy =           0.0000000000000000
    VV10 Nonlocal Energy =                  0.0000000000000000
    Total Energy =                       -188.5668511062961556



Properties will be evaluated at   0.000000,   0.000000,   0.000000 [a0]

Properties computed using the SCF density matrix

  Nuclear Dipole Moment: [e a0]
     X:    -0.3413      Y:    -3.3694      Z:     0.6408

  Electronic Dipole Moment: [e a0]
     X:     0.1706      Y:     3.2581      Z:    -0.6186

  Dipole Moment: [e a0]
     X:    -0.1707      Y:    -0.1113      Z:     0.0223     Total:     0.2050

  Dipole Moment: [D]
     X:    -0.4339      Y:    -0.2828      Z:     0.0566     Total:     0.5210


*** tstop() called on DESKTOP-QL22TIG at Fri Mar 22 09:38:02 2019
Module time:
	user time   =       1.86 seconds =       0.03 minutes
	system time =       0.11 seconds =       0.00 minutes
	total time  =          3 seconds =       0.05 minutes
Total time:
	user time   =       6.72 seconds =       0.11 minutes
	system time =       0.67 seconds =       0.01 minutes
	total time  =          9 seconds =       0.15 minutes

*** tstart() called on DESKTOP-QL22TIG
*** at Fri Mar 22 09:38:02 2019


         ------------------------------------------------------------
                                   SCF GRAD                          
                          Rob Parrish, Justin Turney,                
                       Andy Simmonett, and Alex Sokolov              
         ------------------------------------------------------------

  ==> Geometry <==

    Molecular point group: c1
    Full point group: C1

    Geometry (in Angstrom), charge = 0, multiplicity = 1:

       Center              X                  Y                   Z               Mass       
    ------------   -----------------  -----------------  -----------------  -----------------
         C            0.076305736714    -0.104062048242     0.018170991598    12.000000000000
         O           -1.136456392995    -0.204834878141    -0.050382988190    15.994914619560
         O            1.102134674417     0.509465550715    -0.006339988361    15.994914619560
         H            0.460555407537    -1.893515842228     0.375869412335     1.007825032070
         H           -0.824404161676    -1.702145015661     0.308006504401     1.007825032070

  Nuclear repulsion =   67.918486712861039

  ==> Basis Set <==

  Basis Set: 3-21G
    Blend: 3-21G
    Number of shells: 19
    Number of basis function: 31
    Number of Cartesian functions: 31
    Spherical Harmonics?: false
    Max angular momentum: 1

  ==> DFJKGrad: Density-Fitted SCF Gradients <==

    Gradient:                    1
    J tasked:                  Yes
    K tasked:                  Yes
    wK tasked:                  No
    OpenMP threads:              1
    Integrals threads:           1
    Memory (MB):               375
    Schwarz Cutoff:          0E+00
    Fitting Condition:       1E-12

   => Auxiliary Basis Set <=

  Basis Set: (3-21G AUX)
    Blend: DEF2-SVP-JKFIT
    Number of shells: 87
    Number of basis function: 315
    Number of Cartesian functions: 315
    Spherical Harmonics?: false
    Max angular momentum: 4

  ==> DFT Potential <==

   => Composite Functional: B3LYP <= 

    B3LYP Hyb-GGA Exchange-Correlation Functional

    P. J. Stephens, F. J. Devlin, C. F. Chabalowski, and M. J. Frisch, J. Phys. Chem. 98, 11623 (1994)

    Deriv               =              1
    GGA                 =           TRUE
    Meta                =          FALSE

    Exchange Hybrid     =           TRUE
    MP2 Hybrid          =          FALSE

   => Exchange Functionals <=

    0.0800   Slater exchange
    0.7200         Becke 88

   => Exact (HF) Exchange <=

    0.2000               HF 

   => Correlation Functionals <=

    0.1900   Vosko, Wilk & Nusair (VWN5_RPA)
    0.8100   Lee, Yang & Parr

   => Molecular Quadrature <=

    Radial Scheme       =       TREUTLER
    Pruning Scheme      =           FLAT
    Nuclear Scheme      =       TREUTLER

    BS radius alpha     =              1
    Pruning alpha       =              1
    Radial Points       =             75
    Spherical Points    =            302
    Total Points        =         107807
    Total Blocks        =            866
    Max Points          =            256
    Max Functions       =             30


  -Total Gradient:
     Atom            X                  Y                   Z
    ------   -----------------  -----------------  -----------------
       1       -0.007207436234    -0.058248732034     0.009164344105
       2        0.006083962342    -0.002150822329     0.001252438269
       3        0.014993325511     0.031717425837    -0.003837308642
       4        0.058800030103     0.007903592933    -0.000991909077
       5       -0.072667856740     0.020776346574    -0.005586357791


*** tstop() called on DESKTOP-QL22TIG at Fri Mar 22 09:38:02 2019
Module time:
	user time   =       0.33 seconds =       0.01 minutes
	system time =       0.05 seconds =       0.00 minutes
	total time  =          0 seconds =       0.00 minutes
Total time:
	user time   =       7.05 seconds =       0.12 minutes
	system time =       0.73 seconds =       0.01 minutes
	total time  =          9 seconds =       0.15 minutes

			-----------------------------------------
			 OPTKING 2.0: for geometry optimizations 
			  - R.A. King,  Bethel University        
			-----------------------------------------

	Previous internal coordinate definitions found.
	---Fragment 1 Geometry and Gradient---
	 C           0.1441969448       -0.1966487720        0.0343381977
	 O          -2.1475913447       -0.3870818222       -0.0952100494
	 O           2.0827326962        0.9627503650       -0.0119808417
	 H           0.8703235893       -3.5782263701        0.7102902510
	 H          -1.5578980884       -3.2165879181        0.5820479405
	            -0.0072074362       -0.0582487320        0.0091643441
	             0.0060839623       -0.0021508223        0.0012524383
	             0.0149933255        0.0317174258       -0.0038373086
	             0.0588000301        0.0079035929       -0.0009919091
	            -0.0726678567        0.0207763466       -0.0055863578

	---Fragment 1 Intrafragment Coordinates---
	 - Coordinate -           - BOHR/RAD -       - ANG/DEG -
	 R(1,2)           =         2.303333	       1.218871
	 R(1,3)           =         2.259264	       1.195551
	 R(1,4)           =         3.524094	       1.864870
	 R(2,5)           =         2.968589	       1.570910
	 R(4,5)           =         2.458351	       1.300903
	 B(1,2,5)         =         1.438736	      82.433513
	 B(1,4,5)         =         1.208220	      69.225920
	 B(2,1,3)         =         2.679257	     153.510104
	 B(2,1,4)         =         1.707692	      97.843517
	 B(2,5,4)         =         1.926580	     110.384894
	 B(3,1,4)         =         1.896061	     108.636271
	 D(1,2,5,4)       =        -0.057071	      -3.269935
	 D(1,4,5,2)       =         0.039537	       2.265282
	 D(2,1,4,5)       =        -0.048222	      -2.762905
	 D(3,1,2,5)       =        -3.076426	    -176.266215
	 D(3,1,4,5)       =         3.080424	     176.495285
	 D(4,1,2,5)       =         0.037660	       2.157731

	Current energy   :      -188.5668511063

	Energy change for the previous step:
		Projected    :         0.0283402665
		Actual       :         0.0350638672

	Performing Bofill update.
	Previous computed or guess Hessian on step 1.
	Steps to be used in Hessian update: 2 1
	Taking PRFO optimization step.
	Maximizing along 1 lowest eigenvalue of Hessian.

 RFO min eigenvalues
 -0.015207 -0.000000 -0.000000 -0.000000 -0.000000  0.000000  0.000000  0.000000
  0.000000  0.014827  0.032262  0.059725  0.101071  0.154652  0.186751  0.965347
  1.054683

 RFO max eigenvalues
 -0.096948  0.047322
	Change in coordinate exceeds step limit of    0.50000.
	Scaling displacements by    0.60521
	|RFO target step|  :        0.5000000000
	RFO gradient       :        0.0388726308
	RFO hessian        :       -0.0175419889
	Projected Delta(E) :        0.0137948534

	Back-transformation to cartesian coordinates...
	Could not converge backtransformation.
	Using first guess instead.

	--- Internal Coordinate Step in ANG or DEG, aJ/ANG or AJ/DEG ---
	 ---------------------------------------------------------------------------
	   Coordinate                Previous        Force       Change         New 
	   ----------                --------       ------       ------       ------
	    1 R(1,2)          =      1.218871    -0.029639     0.016074     1.234945
	    2 R(1,3)          =      1.195551    -0.240722    -0.014950     1.180601
	    3 R(1,4)          =      1.864870     0.112543    -0.142996     1.721874
	    4 R(2,5)          =      1.570910     0.147688    -0.186410     1.384500
	    5 R(4,5)          =      1.300903    -0.511273     0.094339     1.395242
	    6 B(1,2,5)        =     82.433513    -0.000535    -0.611848    81.821665
	    7 B(1,4,5)        =     69.225920     0.000300    -3.248864    65.977056
	    8 B(2,1,3)        =    153.510104     0.002134     0.866663   154.376767
	    9 B(2,1,4)        =     97.843517    -0.000865     2.699777   100.543294
	   10 B(2,5,4)        =    110.384894     0.001103     0.933927   111.318821
	   11 B(3,1,4)        =    108.636271    -0.001269    -3.609031   105.027241
	   12 D(1,2,5,4)      =     -3.269935    -0.000004    -2.101482    -5.371416
	   13 D(1,4,5,2)      =      2.265282    -0.000003     1.907163     4.172445
	   14 D(2,1,4,5)      =     -2.762905     0.000003    -1.670083    -4.432987
	   15 D(3,1,2,5)      =   -176.266215    -0.000001    -3.316228  -179.582443
	   16 D(3,1,4,5)      =    176.495285     0.000008     0.729428   177.224713
	   17 D(4,1,2,5)      =      2.157731    -0.000021     1.964066     4.121797
	 ---------------------------------------------------------------------------
	Successfully symmetrized geometry.

  ==> Convergence Check <==

  Measures of convergence in internal coordinates in au.
  Criteria marked as inactive (o), active & met (*), and active & unmet ( ).
  ---------------------------------------------------------------------------------------------
   Step     Total Energy     Delta E     MAX Force     RMS Force      MAX Disp      RMS Disp   
  ---------------------------------------------------------------------------------------------
    Convergence Criteria    1.00e-06 *    3.00e-04 *             o    1.20e-03 *             o
  ---------------------------------------------------------------------------------------------
      3    -188.56685111    3.51e-02      6.21e-02      1.98e-02 o    3.52e-01      1.21e-01 o  ~
  ---------------------------------------------------------------------------------------------

	Writing optimization data to binary file.
	Structure for next step:
	Cartesian Geometry (in Angstrom)
	    C     0.0737857312  -0.1633734646   0.0438703006
	    O    -1.1523894446  -0.2779502223  -0.0480826089
	    O     1.0932842660   0.4307176626   0.0051827279
	    H     0.5207348254  -1.7975258190   0.3514934910
	    H    -0.8572801140  -1.5869603903   0.2928600212
			--------------------------
			 OPTKING Finished Execution 
			--------------------------

    Structure for next step:
    Molecular point group: c1
    Full point group: C1

    Geometry (in Angstrom), charge = 0, multiplicity = 1:

    C            0.082461486414    -0.099729973007     0.033226801618
    O           -1.143713689398    -0.214306730761    -0.058726107901
    O            1.101960021238     0.494361154134    -0.005460771088
    H            0.529410580663    -1.733882327453     0.340849992039
    H           -0.848604358806    -1.523316898740     0.282216522219

gradient() will perform analytic gradient computation.

*** tstart() called on DESKTOP-QL22TIG
*** at Fri Mar 22 09:38:02 2019

   => Loading Basis Set <=

    Name: 3-21G
    Role: ORBITAL
    Keyword: BASIS
    atoms 1   entry C          line    68 file /home/wderricotte/src/psi4conda/share/psi4/basis/3-21g.gbs 
    atoms 2-3 entry O          line    90 file /home/wderricotte/src/psi4conda/share/psi4/basis/3-21g.gbs 
    atoms 4-5 entry H          line    21 file /home/wderricotte/src/psi4conda/share/psi4/basis/3-21g.gbs 


         ---------------------------------------------------------
                                   SCF
            by Justin Turney, Rob Parrish, Andy Simmonett
                             and Daniel Smith
                              RKS Reference
                        1 Threads,    500 MiB Core
         ---------------------------------------------------------

  ==> Geometry <==

    Molecular point group: c1
    Full point group: C1

    Geometry (in Angstrom), charge = 0, multiplicity = 1:

       Center              X                  Y                   Z               Mass       
    ------------   -----------------  -----------------  -----------------  -----------------
         C            0.082461486414    -0.099729973007     0.033226801618    12.000000000000
         O           -1.143713689398    -0.214306730761    -0.058726107901    15.994914619560
         O            1.101960021238     0.494361154134    -0.005460771088    15.994914619560
         H            0.529410580663    -1.733882327453     0.340849992039     1.007825032070
         H           -0.848604358806    -1.523316898740     0.282216522219     1.007825032070

  Running in c1 symmetry.

  Rotational constants: A =      2.93120  B =      0.36577  C =      0.32526 [cm^-1]
  Rotational constants: A =  87875.11272  B =  10965.61636  C =   9751.16678 [MHz]
  Nuclear repulsion =   68.753900971427939

  Charge       = 0
  Multiplicity = 1
  Electrons    = 24
  Nalpha       = 12
  Nbeta        = 12

  ==> Algorithm <==

  SCF Algorithm Type is DF.
  DIIS enabled.
  MOM disabled.
  Fractional occupation disabled.
  Guess Type is READ.
  Energy threshold   = 1.00e-08
  Density threshold  = 1.00e-08
  Integral threshold = 0.00e+00

  ==> Primary Basis <==

  Basis Set: 3-21G
    Blend: 3-21G
    Number of shells: 19
    Number of basis function: 31
    Number of Cartesian functions: 31
    Spherical Harmonics?: false
    Max angular momentum: 1

  ==> DFT Potential <==

   => Composite Functional: B3LYP <= 

    B3LYP Hyb-GGA Exchange-Correlation Functional

    P. J. Stephens, F. J. Devlin, C. F. Chabalowski, and M. J. Frisch, J. Phys. Chem. 98, 11623 (1994)

    Deriv               =              1
    GGA                 =           TRUE
    Meta                =          FALSE

    Exchange Hybrid     =           TRUE
    MP2 Hybrid          =          FALSE

   => Exchange Functionals <=

    0.0800   Slater exchange
    0.7200         Becke 88

   => Exact (HF) Exchange <=

    0.2000               HF 

   => Correlation Functionals <=

    0.1900   Vosko, Wilk & Nusair (VWN5_RPA)
    0.8100   Lee, Yang & Parr

   => Molecular Quadrature <=

    Radial Scheme       =       TREUTLER
    Pruning Scheme      =           FLAT
    Nuclear Scheme      =       TREUTLER

    BS radius alpha     =              1
    Pruning alpha       =              1
    Radial Points       =             75
    Spherical Points    =            302
    Total Points        =         107765
    Total Blocks        =            864
    Max Points          =            256
    Max Functions       =             30

   => Loading Basis Set <=

    Name: (3-21G AUX)
    Role: JKFIT
    Keyword: DF_BASIS_SCF
    atoms 1   entry C          line   203 file /home/wderricotte/src/psi4conda/share/psi4/basis/def2-svp-jkfit.gbs 
    atoms 2-3 entry O          line   323 file /home/wderricotte/src/psi4conda/share/psi4/basis/def2-svp-jkfit.gbs 
    atoms 4-5 entry H          line    23 file /home/wderricotte/src/psi4conda/share/psi4/basis/def2-svp-jkfit.gbs 

  Reading orbitals from file 180, no projection.

  ==> Pre-Iterations <==

   -------------------------------------------------------
    Irrep   Nso     Nmo     Nalpha   Nbeta   Ndocc  Nsocc
   -------------------------------------------------------
     A         31      31       0       0       0       0
   -------------------------------------------------------
    Total      31      31      12      12      12       0
   -------------------------------------------------------

  ==> Integral Setup <==

  ==> DiskDFJK: Density-Fitted J/K Matrices <==

    J tasked:                  Yes
    K tasked:                  Yes
    wK tasked:                  No
    OpenMP threads:              1
    Integrals threads:           1
    Memory (MB):               375
    Algorithm:                Core
    Integral Cache:           NONE
    Schwarz Cutoff:          1E-12
    Fitting Condition:       1E-12

   => Auxiliary Basis Set <=

  Basis Set: (3-21G AUX)
    Blend: DEF2-SVP-JKFIT
    Number of shells: 87
    Number of basis function: 315
    Number of Cartesian functions: 315
    Spherical Harmonics?: false
    Max angular momentum: 4

  Minimum eigenvalue in the overlap matrix is 2.4810846636E-02.
  Using Symmetric Orthogonalization.

  SCF Guess: Orbitals guess was supplied from a previous computation.

  ==> Iterations <==

                           Total Energy        Delta E     RMS |[F,P]|

   @DF-RKS iter   0:  -188.56344193255396   -1.88563e+02   6.78387e-03 
   @DF-RKS iter   1:  -188.55326785634719    1.01741e-02   1.27450e-03 
   @DF-RKS iter   2:  -188.55353288966660   -2.65033e-04   1.80457e-03 DIIS
   @DF-RKS iter   3:  -188.55492292517746   -1.39004e-03   5.39633e-04 DIIS
   @DF-RKS iter   4:  -188.55502458615700   -1.01661e-04   2.71291e-04 DIIS
   @DF-RKS iter   5:  -188.55505755743744   -3.29713e-05   8.40977e-05 DIIS
   @DF-RKS iter   6:  -188.55506238012103   -4.82268e-06   2.20156e-05 DIIS
   @DF-RKS iter   7:  -188.55506266255250   -2.82431e-07   2.28058e-06 DIIS
   @DF-RKS iter   8:  -188.55506266477494   -2.22244e-09   1.13252e-06 DIIS
   @DF-RKS iter   9:  -188.55506266561406   -8.39123e-10   8.74007e-08 DIIS
   @DF-RKS iter  10:  -188.55506266561918   -5.11591e-12   2.64987e-09 DIIS

  ==> Post-Iterations <==

    Orbital Energies [Eh]
    ---------------------

    Doubly Occupied:                                                      

       1A    -19.135582     2A    -19.128075     3A    -10.350394  
       4A     -1.177852     5A     -1.131659     6A     -0.574919  
       7A     -0.565339     8A     -0.514888     9A     -0.507378  
      10A     -0.402544    11A     -0.361640    12A     -0.275555  

    Virtual:                                                              

      13A     -0.074846    14A     -0.004263    15A      0.042625  
      16A      0.171889    17A      0.496723    18A      0.623017  
      19A      0.689208    20A      0.747816    21A      0.865257  
      22A      0.982423    23A      1.127885    24A      1.366451  
      25A      1.447588    26A      1.487974    27A      1.539907  
      28A      1.554378    29A      1.639773    30A      2.971005  
      31A      3.333071  

    Final Occupation by Irrep:
              A 
    DOCC [    12 ]

  Energy converged.

  @DF-RKS Final Energy:  -188.55506266561918

   => Energetics <=

    Nuclear Repulsion Energy =             68.7539009714279388
    One-Electron Energy =                -392.9585346446701806
    Two-Electron Energy =                 154.3153100457369362
    DFT Exchange-Correlation Energy =     -18.6657390381138661
    Empirical Dispersion Energy =           0.0000000000000000
    VV10 Nonlocal Energy =                  0.0000000000000000
    Total Energy =                       -188.5550626656191753



Properties will be evaluated at   0.000000,   0.000000,   0.000000 [a0]

Properties computed using the SCF density matrix

  Nuclear Dipole Moment: [e a0]
     X:    -0.2994      Y:    -3.0522      Z:     0.5838

  Electronic Dipole Moment: [e a0]
     X:    -0.0412      Y:     2.8991      Z:    -0.5313

  Dipole Moment: [e a0]
     X:    -0.3407      Y:    -0.1530      Z:     0.0525     Total:     0.3771

  Dipole Moment: [D]
     X:    -0.8659      Y:    -0.3890      Z:     0.1335     Total:     0.9586


*** tstop() called on DESKTOP-QL22TIG at Fri Mar 22 09:38:04 2019
Module time:
	user time   =       1.75 seconds =       0.03 minutes
	system time =       0.18 seconds =       0.00 minutes
	total time  =          2 seconds =       0.03 minutes
Total time:
	user time   =       8.80 seconds =       0.15 minutes
	system time =       0.93 seconds =       0.02 minutes
	total time  =         11 seconds =       0.18 minutes

*** tstart() called on DESKTOP-QL22TIG
*** at Fri Mar 22 09:38:04 2019


         ------------------------------------------------------------
                                   SCF GRAD                          
                          Rob Parrish, Justin Turney,                
                       Andy Simmonett, and Alex Sokolov              
         ------------------------------------------------------------

  ==> Geometry <==

    Molecular point group: c1
    Full point group: C1

    Geometry (in Angstrom), charge = 0, multiplicity = 1:

       Center              X                  Y                   Z               Mass       
    ------------   -----------------  -----------------  -----------------  -----------------
         C            0.082461486414    -0.099729973007     0.033226801618    12.000000000000
         O           -1.143713689398    -0.214306730761    -0.058726107901    15.994914619560
         O            1.101960021238     0.494361154134    -0.005460771088    15.994914619560
         H            0.529410580663    -1.733882327453     0.340849992039     1.007825032070
         H           -0.848604358806    -1.523316898740     0.282216522219     1.007825032070

  Nuclear repulsion =   68.753900971427939

  ==> Basis Set <==

  Basis Set: 3-21G
    Blend: 3-21G
    Number of shells: 19
    Number of basis function: 31
    Number of Cartesian functions: 31
    Spherical Harmonics?: false
    Max angular momentum: 1

  ==> DFJKGrad: Density-Fitted SCF Gradients <==

    Gradient:                    1
    J tasked:                  Yes
    K tasked:                  Yes
    wK tasked:                  No
    OpenMP threads:              1
    Integrals threads:           1
    Memory (MB):               375
    Schwarz Cutoff:          0E+00
    Fitting Condition:       1E-12

   => Auxiliary Basis Set <=

  Basis Set: (3-21G AUX)
    Blend: DEF2-SVP-JKFIT
    Number of shells: 87
    Number of basis function: 315
    Number of Cartesian functions: 315
    Spherical Harmonics?: false
    Max angular momentum: 4

  ==> DFT Potential <==

   => Composite Functional: B3LYP <= 

    B3LYP Hyb-GGA Exchange-Correlation Functional

    P. J. Stephens, F. J. Devlin, C. F. Chabalowski, and M. J. Frisch, J. Phys. Chem. 98, 11623 (1994)

    Deriv               =              1
    GGA                 =           TRUE
    Meta                =          FALSE

    Exchange Hybrid     =           TRUE
    MP2 Hybrid          =          FALSE

   => Exchange Functionals <=

    0.0800   Slater exchange
    0.7200         Becke 88

   => Exact (HF) Exchange <=

    0.2000               HF 

   => Correlation Functionals <=

    0.1900   Vosko, Wilk & Nusair (VWN5_RPA)
    0.8100   Lee, Yang & Parr

   => Molecular Quadrature <=

    Radial Scheme       =       TREUTLER
    Pruning Scheme      =           FLAT
    Nuclear Scheme      =       TREUTLER

    BS radius alpha     =              1
    Pruning alpha       =              1
    Radial Points       =             75
    Spherical Points    =            302
    Total Points        =         107765
    Total Blocks        =            864
    Max Points          =            256
    Max Functions       =             30


  -Total Gradient:
     Atom            X                  Y                   Z
    ------   -----------------  -----------------  -----------------
       1       -0.046948528866     0.002196610173     0.000317514958
       2        0.036082435959     0.011172381494    -0.002819293624
       3        0.006710426674    -0.005653627196     0.000091141023
       4        0.037083623302    -0.001172656195    -0.001210329320
       5       -0.032930268587    -0.006550519693     0.003619990601


*** tstop() called on DESKTOP-QL22TIG at Fri Mar 22 09:38:05 2019
Module time:
	user time   =       0.41 seconds =       0.01 minutes
	system time =       0.02 seconds =       0.00 minutes
	total time  =          1 seconds =       0.02 minutes
Total time:
	user time   =       9.21 seconds =       0.15 minutes
	system time =       0.95 seconds =       0.02 minutes
	total time  =         12 seconds =       0.20 minutes

			-----------------------------------------
			 OPTKING 2.0: for geometry optimizations 
			  - R.A. King,  Bethel University        
			-----------------------------------------

	Previous internal coordinate definitions found.
	---Fragment 1 Geometry and Gradient---
	 C           0.1558296258       -0.1884623362        0.0627895553
	 O          -2.1613056474       -0.4049810296       -0.1109762608
	 O           2.0824026495        0.9342071921       -0.0103193618
	 H           1.0004410093       -3.2765627455        0.6441131373
	 H          -1.6036298333       -2.8786517522        0.5333119372
	            -0.0469485289        0.0021966102        0.0003175150
	             0.0360824360        0.0111723815       -0.0028192936
	             0.0067104267       -0.0056536272        0.0000911410
	             0.0370836233       -0.0011726562       -0.0012103293
	            -0.0329302686       -0.0065505197        0.0036199906

	---Fragment 1 Intrafragment Coordinates---
	 - Coordinate -           - BOHR/RAD -       - ANG/DEG -
	 R(1,2)           =         2.333708	       1.234945
	 R(1,3)           =         2.231012	       1.180601
	 R(1,4)           =         3.253870	       1.721874
	 R(2,5)           =         2.616325	       1.384500
	 R(4,5)           =         2.636626	       1.395242
	 B(1,2,5)         =         1.428057	      81.821665
	 B(1,4,5)         =         1.151517	      65.977056
	 B(2,1,3)         =         2.694383	     154.376767
	 B(2,1,4)         =         1.754812	     100.543294
	 B(2,5,4)         =         1.942880	     111.318821
	 B(3,1,4)         =         1.833071	     105.027241
	 D(1,2,5,4)       =        -0.093749	      -5.371416
	 D(1,4,5,2)       =         0.072823	       4.172445
	 D(2,1,4,5)       =        -0.077370	      -4.432987
	 D(3,1,2,5)       =        -3.134305	    -179.582443
	 D(3,1,4,5)       =         3.093155	     177.224713
	 D(4,1,2,5)       =         0.071939	       4.121797

	Current energy   :      -188.5550626656

	Energy change for the previous step:
		Projected    :         0.0137948534
		Actual       :         0.0117884407

	Performing Bofill update.
	Previous computed or guess Hessian on step 1.
	Change in internal coordinate of 5.99e-01 exceeds limit of 5.00e-01.
	 Skipping Hessian update for step 2.
	Steps to be used in Hessian update: 3 1
	Taking PRFO optimization step.
	Maximizing along 1 lowest eigenvalue of Hessian.

 RFO min eigenvalues
 -0.014392 -0.000000 -0.000000 -0.000000  0.000000  0.000000  0.000000  0.000000
  0.000000  0.015186  0.032747  0.057199  0.098511  0.156366  0.184884  0.951236
  1.053486

 RFO max eigenvalues
 -0.129847  0.000434
	|RFO target step|  :        0.4248885235
	RFO gradient       :       -0.0328497998
	RFO hessian        :        0.0631968230
	Projected Delta(E) :       -0.0069909547

	Back-transformation to cartesian coordinates...
	Could not converge backtransformation.
	Using first guess instead.

	--- Internal Coordinate Step in ANG or DEG, aJ/ANG or AJ/DEG ---
	 ---------------------------------------------------------------------------
	   Coordinate                Previous        Force       Change         New 
	   ----------                --------       ------       ------       ------
	    1 R(1,2)          =      1.234945     0.242574     0.018233     1.253178
	    2 R(1,3)          =      1.180601    -0.024279    -0.001942     1.178659
	    3 R(1,4)          =      1.721874    -0.025336    -0.097202     1.624672
	    4 R(2,5)          =      1.384500    -0.051012    -0.114899     1.269601
	    5 R(4,5)          =      1.395242    -0.213932    -0.136296     1.258946
	    6 B(1,2,5)        =     81.821665    -0.000526    -2.197343    79.624322
	    7 B(1,4,5)        =     65.977056     0.000414     0.765912    66.742968
	    8 B(2,1,3)        =    154.376767    -0.000189    -1.162730   153.214037
	    9 B(2,1,4)        =    100.543294    -0.000982    -4.232926    96.310368
	   10 B(2,5,4)        =    111.318821     0.001111     5.871861   117.190682
	   11 B(3,1,4)        =    105.027241     0.001179     5.436516   110.463757
	   12 D(1,2,5,4)      =     -5.371416     0.000022     1.897906    -3.473511
	   13 D(1,4,5,2)      =      4.172445    -0.000004    -1.304460     2.867985
	   14 D(2,1,4,5)      =     -4.432987     0.000035     1.832949    -2.600039
	   15 D(3,1,2,5)      =   -179.582443     0.000028     0.305964  -179.276479
	   16 D(3,1,4,5)      =    177.224713     0.000011     0.985407   178.210120
	   17 D(4,1,2,5)      =      4.121797    -0.000038    -1.713817     2.407980
	 ---------------------------------------------------------------------------
	Successfully symmetrized geometry.

  ==> Convergence Check <==

  Measures of convergence in internal coordinates in au.
  Criteria marked as inactive (o), active & met (*), and active & unmet ( ).
  ---------------------------------------------------------------------------------------------
   Step     Total Energy     Delta E     MAX Force     RMS Force      MAX Disp      RMS Disp   
  ---------------------------------------------------------------------------------------------
    Convergence Criteria    1.00e-06 *    3.00e-04 *             o    1.20e-03 *             o
  ---------------------------------------------------------------------------------------------
      4    -188.55506267    1.18e-02      2.94e-02      1.17e-02 o    2.58e-01      1.03e-01 o  ~
  ---------------------------------------------------------------------------------------------

	Writing optimization data to binary file.
	Structure for next step:
	Cartesian Geometry (in Angstrom)
	    C     0.1052935547  -0.1366358191   0.0393837597
	    O    -1.1376392590  -0.2788435511  -0.0337557896
	    O     1.0962812310   0.4995408577  -0.0102017232
	    H     0.4460538626  -1.6963195944   0.3407586692
	    H    -0.7884753491  -1.4646166688   0.2559215209
			--------------------------
			 OPTKING Finished Execution 
			--------------------------

    Structure for next step:
    Molecular point group: c1
    Full point group: C1

    Geometry (in Angstrom), charge = 0, multiplicity = 1:

[...]
         H            0.341375655214    -1.653518907106     0.337786902363     1.007825032070
         H           -0.715715098318    -1.454405581870     0.228550935085     1.007825032070

  Running in c1 symmetry.

  Rotational constants: A =      3.12299  B =      0.36116  C =      0.32372 [cm^-1]
  Rotational constants: A =  93624.98414  B =  10827.30298  C =   9704.96778 [MHz]
  Nuclear repulsion =   68.637004057203256

  Charge       = 0
  Multiplicity = 1
  Electrons    = 24
  Nalpha       = 12
  Nbeta        = 12

  ==> Algorithm <==

  SCF Algorithm Type is DF.
  DIIS enabled.
  MOM disabled.
  Fractional occupation disabled.
  Guess Type is READ.
  Energy threshold   = 1.00e-08
  Density threshold  = 1.00e-08
  Integral threshold = 0.00e+00

  ==> Primary Basis <==

  Basis Set: 3-21G
    Blend: 3-21G
    Number of shells: 19
    Number of basis function: 31
    Number of Cartesian functions: 31
    Spherical Harmonics?: false
    Max angular momentum: 1

  ==> DFT Potential <==

   => Composite Functional: B3LYP <= 

    B3LYP Hyb-GGA Exchange-Correlation Functional

    P. J. Stephens, F. J. Devlin, C. F. Chabalowski, and M. J. Frisch, J. Phys. Chem. 98, 11623 (1994)

    Deriv               =              1
    GGA                 =           TRUE
    Meta                =          FALSE

    Exchange Hybrid     =           TRUE
    MP2 Hybrid          =          FALSE

   => Exchange Functionals <=

    0.0800   Slater exchange
    0.7200         Becke 88

   => Exact (HF) Exchange <=

    0.2000               HF 

   => Correlation Functionals <=

    0.1900   Vosko, Wilk & Nusair (VWN5_RPA)
    0.8100   Lee, Yang & Parr

   => Molecular Quadrature <=

    Radial Scheme       =       TREUTLER
    Pruning Scheme      =           FLAT
    Nuclear Scheme      =       TREUTLER

    BS radius alpha     =              1
    Pruning alpha       =              1
    Radial Points       =             75
    Spherical Points    =            302
    Total Points        =         107712
    Total Blocks        =            871
    Max Points          =            256
    Max Functions       =             30

   => Loading Basis Set <=

    Name: (3-21G AUX)
    Role: JKFIT
    Keyword: DF_BASIS_SCF
    atoms 1   entry C          line   203 file /home/wderricotte/src/psi4conda/share/psi4/basis/def2-svp-jkfit.gbs 
    atoms 2-3 entry O          line   323 file /home/wderricotte/src/psi4conda/share/psi4/basis/def2-svp-jkfit.gbs 
    atoms 4-5 entry H          line    23 file /home/wderricotte/src/psi4conda/share/psi4/basis/def2-svp-jkfit.gbs 

  Reading orbitals from file 180, no projection.

  ==> Pre-Iterations <==

   -------------------------------------------------------
    Irrep   Nso     Nmo     Nalpha   Nbeta   Ndocc  Nsocc
   -------------------------------------------------------
     A         31      31       0       0       0       0
   -------------------------------------------------------
    Total      31      31      12      12      12       0
   -------------------------------------------------------

  ==> Integral Setup <==

  ==> DiskDFJK: Density-Fitted J/K Matrices <==

    J tasked:                  Yes
    K tasked:                  Yes
    wK tasked:                  No
    OpenMP threads:              1
    Integrals threads:           1
    Memory (MB):               375
    Algorithm:                Core
    Integral Cache:           NONE
    Schwarz Cutoff:          1E-12
    Fitting Condition:       1E-12

   => Auxiliary Basis Set <=

  Basis Set: (3-21G AUX)
    Blend: DEF2-SVP-JKFIT
    Number of shells: 87
    Number of basis function: 315
    Number of Cartesian functions: 315
    Spherical Harmonics?: false
    Max angular momentum: 4

  Minimum eigenvalue in the overlap matrix is 2.7700075474E-02.
  Using Symmetric Orthogonalization.

  SCF Guess: Orbitals guess was supplied from a previous computation.

  ==> Iterations <==

                           Total Energy        Delta E     RMS |[F,P]|

   @DF-RKS iter   0:  -188.57213966170954   -1.88572e+02   3.01211e-05 
   @DF-RKS iter   1:  -188.57204812948780    9.15322e-05   1.76776e-05 
   @DF-RKS iter   2:  -188.57204725800287    8.71485e-07   5.16064e-05 DIIS
   @DF-RKS iter   3:  -188.57204826018923   -1.00219e-06   2.16661e-06 DIIS
   @DF-RKS iter   4:  -188.57204826225188   -2.06265e-09   1.00077e-06 DIIS
   @DF-RKS iter   5:  -188.57204826258265   -3.30772e-10   3.37338e-07 DIIS
   @DF-RKS iter   6:  -188.57204826263003   -4.73790e-11   5.76854e-08 DIIS
   @DF-RKS iter   7:  -188.57204826263163   -1.59162e-12   4.45739e-09 DIIS

  ==> Post-Iterations <==

    Orbital Energies [Eh]
    ---------------------

    Doubly Occupied:                                                      

       1A    -19.130573     2A    -19.106995     3A    -10.344810  
       4A     -1.167640     5A     -1.104935     6A     -0.600694  
       7A     -0.554690     8A     -0.500320     9A     -0.496647  
      10A     -0.399784    11A     -0.347424    12A     -0.295736  

    Virtual:                                                              

      13A     -0.065903    14A     -0.013016    15A      0.100953  
      16A      0.189868    17A      0.443468    18A      0.627035  
      19A      0.693788    20A      0.711868    21A      0.865689  
      22A      0.940956    23A      1.154607    24A      1.375818  
      25A      1.465283    26A      1.498771    27A      1.548209  
      28A      1.580780    29A      1.666601    30A      2.982960  
      31A      3.238930  

    Final Occupation by Irrep:
              A 
    DOCC [    12 ]

  Energy converged.

  @DF-RKS Final Energy:  -188.57204826263163

   => Energetics <=

    Nuclear Repulsion Energy =             68.6370040572032565
    One-Electron Energy =                -392.8902546041645110
    Two-Electron Energy =                 154.3751811092382127
    DFT Exchange-Correlation Energy =     -18.6939788249086050
    Empirical Dispersion Energy =           0.0000000000000000
    VV10 Nonlocal Energy =                  0.0000000000000000
    Total Energy =                       -188.5720482626316254



Properties will be evaluated at   0.000000,   0.000000,   0.000000 [a0]

Properties computed using the SCF density matrix

  Nuclear Dipole Moment: [e a0]
     X:    -0.3513      Y:    -2.9121      Z:     0.5306

  Electronic Dipole Moment: [e a0]
     X:     0.2600      Y:     2.4802      Z:    -0.4546

  Dipole Moment: [e a0]
     X:    -0.0913      Y:    -0.4319      Z:     0.0761     Total:     0.4479

  Dipole Moment: [D]
     X:    -0.2321      Y:    -1.0977      Z:     0.1933     Total:     1.1385


*** tstop() called on DESKTOP-QL22TIG at Fri Mar 22 09:38:20 2019
Module time:
	user time   =       1.32 seconds =       0.02 minutes
	system time =       0.08 seconds =       0.00 minutes
	total time  =          1 seconds =       0.02 minutes
Total time:
	user time   =      22.71 seconds =       0.38 minutes
	system time =       2.18 seconds =       0.04 minutes
	total time  =         27 seconds =       0.45 minutes

*** tstart() called on DESKTOP-QL22TIG
*** at Fri Mar 22 09:38:20 2019


         ------------------------------------------------------------
                                   SCF GRAD                          
                          Rob Parrish, Justin Turney,                
                       Andy Simmonett, and Alex Sokolov              
         ------------------------------------------------------------

  ==> Geometry <==

    Molecular point group: c1
    Full point group: C1

    Geometry (in Angstrom), charge = 0, multiplicity = 1:

       Center              X                  Y                   Z               Mass       
    ------------   -----------------  -----------------  -----------------  -----------------
         C            0.129784220059    -0.143510255477     0.036169310292    12.000000000000
         O           -1.154576783693    -0.249347483617    -0.030169152237    15.994914619560
         O            1.080794459278     0.552841892869    -0.032650887544    15.994914619560
         H            0.341375655214    -1.653518907106     0.337786902363     1.007825032070
         H           -0.715715098318    -1.454405581870     0.228550935085     1.007825032070

  Nuclear repulsion =   68.637004057203256

  ==> Basis Set <==

  Basis Set: 3-21G
    Blend: 3-21G
    Number of shells: 19
    Number of basis function: 31
    Number of Cartesian functions: 31
    Spherical Harmonics?: false
    Max angular momentum: 1

  ==> DFJKGrad: Density-Fitted SCF Gradients <==

    Gradient:                    1
    J tasked:                  Yes
    K tasked:                  Yes
    wK tasked:                  No
    OpenMP threads:              1
    Integrals threads:           1
    Memory (MB):               375
    Schwarz Cutoff:          0E+00
    Fitting Condition:       1E-12

   => Auxiliary Basis Set <=

  Basis Set: (3-21G AUX)
    Blend: DEF2-SVP-JKFIT
    Number of shells: 87
    Number of basis function: 315
    Number of Cartesian functions: 315
    Spherical Harmonics?: false
    Max angular momentum: 4

  ==> DFT Potential <==

   => Composite Functional: B3LYP <= 

    B3LYP Hyb-GGA Exchange-Correlation Functional

    P. J. Stephens, F. J. Devlin, C. F. Chabalowski, and M. J. Frisch, J. Phys. Chem. 98, 11623 (1994)

    Deriv               =              1
    GGA                 =           TRUE
    Meta                =          FALSE

    Exchange Hybrid     =           TRUE
    MP2 Hybrid          =          FALSE

   => Exchange Functionals <=

    0.0800   Slater exchange
    0.7200         Becke 88

   => Exact (HF) Exchange <=

    0.2000               HF 

   => Correlation Functionals <=

    0.1900   Vosko, Wilk & Nusair (VWN5_RPA)
    0.8100   Lee, Yang & Parr

   => Molecular Quadrature <=

    Radial Scheme       =       TREUTLER
    Pruning Scheme      =           FLAT
    Nuclear Scheme      =       TREUTLER

    BS radius alpha     =              1
    Pruning alpha       =              1
    Radial Points       =             75
    Spherical Points    =            302
    Total Points        =         107712
    Total Blocks        =            871
    Max Points          =            256
    Max Functions       =             30


  -Total Gradient:
     Atom            X                  Y                   Z
    ------   -----------------  -----------------  -----------------
       1       -0.000132259218    -0.000034947280     0.000024249816
       2        0.000122265998     0.000013934597     0.000000205108
       3        0.000019287800    -0.000000087163    -0.000012719350
       4       -0.000027101995     0.000040264105    -0.000009156149
       5        0.000020988024     0.000011449778    -0.000008135889


*** tstop() called on DESKTOP-QL22TIG at Fri Mar 22 09:38:21 2019
Module time:
	user time   =       0.32 seconds =       0.01 minutes
	system time =       0.03 seconds =       0.00 minutes
	total time  =          1 seconds =       0.02 minutes
Total time:
	user time   =      23.03 seconds =       0.38 minutes
	system time =       2.21 seconds =       0.04 minutes
	total time  =         28 seconds =       0.47 minutes

			-----------------------------------------
			 OPTKING 2.0: for geometry optimizations 
			  - R.A. King,  Bethel University        
			-----------------------------------------

	Previous internal coordinate definitions found.
	---Fragment 1 Geometry and Gradient---
	 C           0.2452566323       -0.2711950801        0.0683500909
	 O          -2.1818339206       -0.4711984560       -0.0570114354
	 O           2.0424055340        1.0447197723       -0.0617012355
	 H           0.6451064968       -3.1246978900        0.6383247367
	 H          -1.3525055250       -2.7484282359        0.4318986747
	            -0.0001322592       -0.0000349473        0.0000242498
	             0.0001222660        0.0000139346        0.0000002051
	             0.0000192878       -0.0000000872       -0.0000127194
	            -0.0000271020        0.0000402641       -0.0000091561
	             0.0000209880        0.0000114498       -0.0000081359

	---Fragment 1 Intrafragment Coordinates---
	 - Coordinate -           - BOHR/RAD -       - ANG/DEG -
	 R(1,2)           =         2.438542	       1.290421
	 R(1,3)           =         2.231208	       1.180704
	 R(1,4)           =         2.937215	       1.554307
	 R(2,5)           =         2.472366	       1.308320
	 R(4,5)           =         2.043195	       1.081212
	 B(1,2,5)         =         1.298976	      74.425819
	 B(1,4,5)         =         1.232787	      70.633499
	 B(2,1,3)         =         2.581213	     147.892603
	 B(2,1,4)         =         1.636633	      93.772152
	 B(2,5,4)         =         2.114790	     121.168527
	 B(3,1,4)         =         2.065340	     118.335240
	 D(1,2,5,4)       =         0.000215	       0.012335
	 D(1,4,5,2)       =        -0.000182	      -0.010456
	 D(2,1,4,5)       =         0.000159	       0.009091
	 D(3,1,2,5)       =         3.140946	     179.962942
	 D(3,1,4,5)       =        -3.141121	    -179.972975
	 D(4,1,2,5)       =        -0.000128	      -0.007358

	Current energy   :      -188.5720482626

	Energy change for the previous step:
		Projected    :        -0.0000001428
		Actual       :        -0.0000001314

	Performing Bofill update.
	Previous computed or guess Hessian on step 1.
	Steps to be used in Hessian update: 10 9
	Taking PRFO optimization step.
	Maximizing along 1 lowest eigenvalue of Hessian.

 RFO min eigenvalues
 -0.000000 -0.000000 -0.000000 -0.000000  0.000000  0.000000  0.000000  0.000000
  0.000000  0.012142  0.032740  0.049415  0.078087  0.156898  0.163785  0.837725
  1.048766

 RFO max eigenvalues
 -0.160690  0.000000
	|RFO target step|  :        0.0006135024
	RFO gradient       :       -0.0000473213
	RFO hessian        :        0.0771330587
	Projected Delta(E) :       -0.0000000145

	Back-transformation to cartesian coordinates...
	Successfully converged to displaced geometry.
	First geometry is closer to target in internal coordinates, so am using that one.
	First geometry has RMS(Delta(q)) = 9.44e-09

	--- Internal Coordinate Step in ANG or DEG, aJ/ANG or AJ/DEG ---
	 ---------------------------------------------------------------------------
	   Coordinate                Previous        Force       Change         New 
	   ----------                --------       ------       ------       ------
	    1 R(1,2)          =      1.290421     0.000891     0.000034     1.290454
	    2 R(1,3)          =      1.180704    -0.000090    -0.000008     1.180696
	    3 R(1,4)          =      1.554307     0.000227     0.000190     1.554497
	    4 R(2,5)          =      1.308320     0.000120     0.000026     1.308345
	    5 R(4,5)          =      1.081212     0.000304     0.000072     1.081284
	    6 B(1,2,5)        =     74.425819    -0.000001     0.005249    74.431068
	    7 B(1,4,5)        =     70.633499     0.000001    -0.002258    70.631241
	    8 B(2,1,3)        =    147.892603     0.000000    -0.001216   147.891387
	    9 B(2,1,4)        =     93.772152    -0.000001    -0.004395    93.767758
	   10 B(2,5,4)        =    121.168527     0.000001     0.001406   121.169933
	   11 B(3,1,4)        =    118.335240     0.000001     0.005613   118.340853
	   12 D(1,2,5,4)      =      0.012335     0.000000    -0.010498     0.001837
	   13 D(1,4,5,2)      =     -0.010456    -0.000000     0.008899    -0.001557
	   14 D(2,1,4,5)      =      0.009091     0.000000    -0.007737     0.001354
	   15 D(3,1,2,5)      =    179.962942     0.000000     0.014137   179.977080
	   16 D(3,1,4,5)      =   -179.972975    -0.000000    -0.012492  -179.985466
	   17 D(4,1,2,5)      =     -0.007358    -0.000000     0.006262    -0.001096
	 ---------------------------------------------------------------------------
	Successfully symmetrized geometry.

  ==> Convergence Check <==

  Measures of convergence in internal coordinates in au.
  Criteria marked as inactive (o), active & met (*), and active & unmet ( ).
  ---------------------------------------------------------------------------------------------
   Step     Total Energy     Delta E     MAX Force     RMS Force      MAX Disp      RMS Disp   
  ---------------------------------------------------------------------------------------------
    Convergence Criteria    1.00e-06 *    3.00e-04 *             o    1.20e-03 *             o
  ---------------------------------------------------------------------------------------------
     11    -188.57204826   -1.31e-07 *    1.08e-04 *    3.01e-05 o    3.58e-04 *    1.49e-04 o  ~
  ---------------------------------------------------------------------------------------------


  **** Optimization is complete! (in 11 steps) ****

  ==> Optimization Summary <==

  Measures of convergence in internal coordinates in au.
  --------------------------------------------------------------------------------------------------------------- ~
   Step         Total Energy             Delta E       MAX Force       RMS Force        MAX Disp        RMS Disp  ~
  --------------------------------------------------------------------------------------------------------------- ~
      1    -188.554743146693   -188.554743146693      0.06370510      0.02515659      0.39705624      0.11972314  ~
      2    -188.601914973467     -0.047171826774      0.07966879      0.02560241      0.32410225      0.11966782  ~
      3    -188.566851106296      0.035063867171      0.06205736      0.01984733      0.35226412      0.12093155  ~
      4    -188.555062665619      0.011788440677      0.02944316      0.01166794      0.25756183      0.10270078  ~
      5    -188.566929091944     -0.011866426325      0.03638082      0.01150646      0.33986734      0.10179596  ~
      6    -188.571432092774     -0.004503000830      0.01180668      0.00488606      0.04734509      0.02222340  ~
      7    -188.571883809962     -0.000451717188      0.00839198      0.00230491      0.03111739      0.01434204  ~
      8    -188.572026154081     -0.000142344120      0.00115399      0.00043010      0.01276376      0.00574744  ~
      9    -188.572041489369     -0.000015335288      0.00058915      0.00023763      0.01825940      0.00722869  ~
     10    -188.572048131265     -0.000006641896      0.00023871      0.00008649      0.00126871      0.00053273  ~
     11    -188.572048262632     -0.000000131367      0.00010814      0.00003012      0.00035841      0.00014880  ~
  --------------------------------------------------------------------------------------------------------------- ~

	Writing optimization data to binary file.
	Final energy is   -188.5720482626316
	Final (previous) structure:
	Cartesian Geometry (in Angstrom)
	    C     0.1297842201  -0.1435102555   0.0361693103
	    O    -1.1545767837  -0.2493474836  -0.0301691522
	    O     1.0807944593   0.5528418929  -0.0326508875
	    H     0.3413756552  -1.6535189071   0.3377869024
	    H    -0.7157150983  -1.4544055819   0.2285509351
	Saving final (previous) structure.
	Removing binary optimization data file.
			--------------------------
			 OPTKING Finished Execution 
			--------------------------

    Final optimized geometry and variables:
    Molecular point group: c1
    Full point group: C1

    Geometry (in Angstrom), charge = 0, multiplicity = 1:

    C            0.129784220059    -0.143510255477     0.036169310292
    O           -1.154576783693    -0.249347483617    -0.030169152237
    O            1.080794459278     0.552841892869    -0.032650887544
    H            0.341375655214    -1.653518907106     0.337786902363
    H           -0.715715098318    -1.454405581870     0.228550935085

	Removing binary optimization data file.
	Cleaning optimization helper files.

    Psi4 stopped on: Friday, 22 March 2019 09:38AM
    Psi4 wall time for execution: 0:00:27.56

*** Psi4 exiting successfully. Buy a developer a beer!
