
Host: localhost.localdomain

Timers On : Wed Apr 10 13:21:45 2019
Timers Off: Wed Apr 10 13:21:46 2019

Wall Time:        1.50 seconds


-----------------------------------------------------------

***********************************************************

Host: localhost.localdomain

Timers On : Wed Apr 10 13:22:01 2019
Timers Off: Wed Apr 10 13:23:14 2019

Wall Time:       72.94 seconds

V: Grid                     :     35.667u      2.567s      1.974w     13 calls
DFH: initialize()           :    269.467u     16.183s      6.484w     13 calls
DFH: sparsity prep          :     25.967u      2.017s      0.525w     13 calls
DFH: AO Construction        :     46.967u      0.817s      0.896w     13 calls
DFH: AO-Met. Contraction    :     11.733u      1.300s      0.244w     13 calls
HF: Form H                  :      8.183u      0.533s      0.168w     13 calls
HF: Form S/X                :      2.283u      0.133s      0.045w     13 calls
HF: Guess                   :     81.783u      5.800s      1.779w     13 calls
SAD Guess                   :     81.333u      5.750s      1.770w      2 calls
HF: Form G                  :    978.350u     11.917s     18.576w    156 calls
RV: Form V                  :    932.067u      7.117s     17.616w    156 calls
Properties                  :    404.687p                         207294 calls
Functional                  :     28.867p                         207294 calls
V_xc                        :    139.303p                         191469 calls
JK: D                       :      0.633u      0.083s      0.013w    156 calls
JK: USO2AO                  :      0.500u      0.100s      0.012w    156 calls
JK: JK                      :     41.950u      4.350s      0.869w    156 calls
DFH: compute_JK()           :     41.600u      4.233s      0.861w    156 calls
DFH: Grabbing AOs           :      0.133u      0.000s      0.003w    156 calls
DFH: compute_J              :     15.967u      0.367s      0.308w    156 calls
DFH: compute_K              :     22.633u      3.583s      0.493w    156 calls
JK: AO2USO                  :      0.200u      0.000s      0.003w    156 calls
HF: Form F                  :      1.167u      0.133s      0.024w    156 calls
HF: DIIS                    :     16.867u      1.600s      0.349w    156 calls
DIISManager::add_entry      :      5.417u      0.533s      0.111w    143 calls
DIISManager::extrapolate    :      7.183u      0.650s      0.147w    130 calls
bMatrix setup               :      3.300u      0.317s      0.070w    130 calls
bMatrix pseudoinverse       :      0.617u      0.033s      0.012w    130 calls
New vector                  :      2.483u      0.183s      0.054w    130 calls
HF: Form C                  :     27.717u      1.550s      0.550w    156 calls
HF: Form D                  :      0.300u      0.000s      0.007w    156 calls
Grad: V T Perturb           :    260.167u     24.050s     10.343w     13 calls
Grad: S                     :      0.950u      0.067s      0.023w     13 calls
Grad: JK                    :    729.817u     44.967s     20.578w     13 calls
JKGrad: Amn                 :    168.550u      9.450s      5.146w     13 calls
JKGrad: Awmn                :      0.000u      0.000s      0.000w     13 calls
JKGrad: AB                  :    169.717u     12.350s      4.395w     13 calls
JKGrad: UV                  :      3.617u      0.283s      0.072w     13 calls
JKGrad: ABx                 :    125.933u      9.583s      3.955w     13 calls
JKGrad: Amnx                :    225.567u     10.217s      6.256w     13 calls
Grad: XC                    :    179.233u      8.783s      3.733w     13 calls
V_xc gradient               :     24.810p                          15825 calls

-----------------------------------------------------------
V: Grid                     :     35.667u      2.567s      1.974w     13 calls
DFH: initialize()           :    269.467u     16.183s      6.484w     13 calls
| DFH: sparsity prep        :     25.967u      2.017s      0.525w     13 calls
| DFH: AO Construction      :     46.967u      0.817s      0.896w     13 calls
| DFH: AO-Met. Contraction  :     11.733u      1.300s      0.244w     13 calls
HF: Form H                  :      8.183u      0.533s      0.168w     13 calls
HF: Form S/X                :      2.283u      0.133s      0.045w     13 calls
HF: Guess                   :     81.783u      5.800s      1.779w     13 calls
| SAD Guess                 :     81.333u      5.750s      1.770w      2 calls
HF: Form G                  :    978.350u     11.917s     18.576w    156 calls
| RV: Form V                :    932.067u      7.117s     17.616w    156 calls
| | Properties              :    374.873p                         191469 calls
| | Functional              :     26.504p                         191469 calls
| | V_xc                    :    139.303p                         191469 calls
| JK: D                     :      0.633u      0.083s      0.013w    156 calls
| JK: USO2AO                :      0.500u      0.100s      0.012w    156 calls
| JK: JK                    :     41.950u      4.350s      0.869w    156 calls
| | DFH: compute_JK()       :     41.600u      4.233s      0.861w    156 calls
| | | DFH: Grabbing AOs     :      0.133u      0.000s      0.003w    156 calls
| | | DFH: compute_J        :     15.967u      0.367s      0.308w    156 calls
| | | DFH: compute_K        :     22.633u      3.583s      0.493w    156 calls
| JK: AO2USO                :      0.200u      0.000s      0.003w    156 calls
HF: Form F                  :      1.167u      0.133s      0.024w    156 calls
HF: DIIS                    :     16.867u      1.600s      0.349w    156 calls
| DIISManager::add_entry    :      5.417u      0.533s      0.111w    143 calls
| DIISManager::extrapolate  :      7.183u      0.650s      0.147w    130 calls
| | bMatrix setup           :      3.300u      0.317s      0.070w    130 calls
| | bMatrix pseudoinverse   :      0.617u      0.033s      0.012w    130 calls
| | New vector              :      2.483u      0.183s      0.054w    130 calls
HF: Form C                  :     27.717u      1.550s      0.550w    156 calls
HF: Form D                  :      0.300u      0.000s      0.007w    156 calls
Grad: V T Perturb           :    260.167u     24.050s     10.343w     13 calls
Grad: S                     :      0.950u      0.067s      0.023w     13 calls
Grad: JK                    :    729.817u     44.967s     20.578w     13 calls
| JKGrad: Amn               :    168.550u      9.450s      5.146w     13 calls
| JKGrad: Awmn              :      0.000u      0.000s      0.000w     13 calls
| JKGrad: AB                :    169.717u     12.350s      4.395w     13 calls
| JKGrad: UV                :      3.617u      0.283s      0.072w     13 calls
| JKGrad: ABx               :    125.933u      9.583s      3.955w     13 calls
| JKGrad: Amnx              :    225.567u     10.217s      6.256w     13 calls
Grad: XC                    :    179.233u      8.783s      3.733w     13 calls
| Properties                :     29.814p                          15825 calls
| Functional                :      2.362p                          15825 calls
| V_xc gradient             :     24.810p                          15825 calls

***********************************************************

Host: localhost.localdomain

Timers On : Wed Apr 10 13:43:31 2019
Timers Off: Wed Apr 10 13:44:43 2019

Wall Time:       72.31 seconds

V: Grid                     :     40.500u      3.050s      1.907w     13 calls
DFH: initialize()           :    268.650u     16.417s      6.470w     13 calls
DFH: sparsity prep          :     27.283u      2.300s      0.555w     13 calls
DFH: AO Construction        :     45.283u      0.667s      0.862w     13 calls
DFH: AO-Met. Contraction    :     12.317u      1.400s      0.256w     13 calls
HF: Form H                  :      8.133u      0.733s      0.170w     13 calls
HF: Form S/X                :      2.483u      0.183s      0.050w     13 calls
HF: Guess                   :     84.750u      6.167s      1.872w     13 calls
SAD Guess                   :     84.350u      6.133s      1.864w      2 calls
HF: Form G                  :   1042.583u     12.083s     19.783w    156 calls
RV: Form V                  :    996.133u      6.867s     18.812w    156 calls
Properties                  :    443.168p                         207294 calls
Functional                  :     28.436p                         207294 calls
V_xc                        :    141.742p                         191469 calls
JK: D                       :      0.483u      0.100s      0.012w    156 calls
JK: USO2AO                  :      0.467u      0.033s      0.011w    156 calls
JK: JK                      :     42.600u      4.833s      0.886w    156 calls
DFH: compute_JK()           :     42.133u      4.750s      0.879w    156 calls
DFH: Grabbing AOs           :      0.150u      0.033s      0.003w    156 calls
DFH: compute_J              :     17.250u      0.350s      0.331w    156 calls
DFH: compute_K              :     21.867u      4.183s      0.491w    156 calls
JK: AO2USO                  :      0.150u      0.033s      0.003w    156 calls
HF: Form F                  :      1.167u      0.133s      0.022w    156 calls
HF: DIIS                    :     17.933u      1.533s      0.368w    156 calls
DIISManager::add_entry      :      6.783u      0.567s      0.136w    143 calls
DIISManager::extrapolate    :      7.167u      0.517s      0.146w    130 calls
bMatrix setup               :      3.150u      0.183s      0.066w    130 calls
bMatrix pseudoinverse       :      0.533u      0.050s      0.012w    130 calls
New vector                  :      2.817u      0.250s      0.057w    130 calls
HF: Form C                  :     28.317u      1.650s      0.564w    156 calls
HF: Form D                  :      0.367u      0.067s      0.007w    156 calls
Grad: V T Perturb           :    258.950u     24.467s      9.908w     13 calls
Grad: S                     :      1.067u      0.033s      0.024w     13 calls
Grad: JK                    :    729.917u     42.433s     20.319w     13 calls
JKGrad: Amn                 :    167.167u      8.833s      5.033w     13 calls
JKGrad: Awmn                :      0.017u      0.000s      0.000w     13 calls
JKGrad: AB                  :    170.367u     11.500s      4.438w     13 calls
JKGrad: UV                  :      3.483u      0.267s      0.072w     13 calls
JKGrad: ABx                 :    126.283u      8.767s      3.851w     13 calls
JKGrad: Amnx                :    224.633u      9.833s      6.143w     13 calls
Grad: XC                    :    154.067u      5.117s      2.984w     13 calls
V_xc gradient               :     24.579p                          15825 calls

-----------------------------------------------------------
V: Grid                     :     40.500u      3.050s      1.907w     13 calls
DFH: initialize()           :    268.650u     16.417s      6.470w     13 calls
| DFH: sparsity prep        :     27.283u      2.300s      0.555w     13 calls
| DFH: AO Construction      :     45.283u      0.667s      0.862w     13 calls
| DFH: AO-Met. Contraction  :     12.317u      1.400s      0.256w     13 calls
HF: Form H                  :      8.133u      0.733s      0.170w     13 calls
HF: Form S/X                :      2.483u      0.183s      0.050w     13 calls
HF: Guess                   :     84.750u      6.167s      1.872w     13 calls
| SAD Guess                 :     84.350u      6.133s      1.864w      2 calls
HF: Form G                  :   1042.583u     12.083s     19.783w    156 calls
| RV: Form V                :    996.133u      6.867s     18.812w    156 calls
| | Properties              :    412.153p                         191469 calls
| | Functional              :     26.237p                         191469 calls
| | V_xc                    :    141.742p                         191469 calls
| JK: D                     :      0.483u      0.100s      0.012w    156 calls
| JK: USO2AO                :      0.467u      0.033s      0.011w    156 calls
| JK: JK                    :     42.600u      4.833s      0.886w    156 calls
| | DFH: compute_JK()       :     42.133u      4.750s      0.879w    156 calls
| | | DFH: Grabbing AOs     :      0.150u      0.033s      0.003w    156 calls
| | | DFH: compute_J        :     17.250u      0.350s      0.331w    156 calls
| | | DFH: compute_K        :     21.867u      4.183s      0.491w    156 calls
| JK: AO2USO                :      0.150u      0.033s      0.003w    156 calls
HF: Form F                  :      1.167u      0.133s      0.022w    156 calls
HF: DIIS                    :     17.933u      1.533s      0.368w    156 calls
| DIISManager::add_entry    :      6.783u      0.567s      0.136w    143 calls
| DIISManager::extrapolate  :      7.167u      0.517s      0.146w    130 calls
| | bMatrix setup           :      3.150u      0.183s      0.066w    130 calls
| | bMatrix pseudoinverse   :      0.533u      0.050s      0.012w    130 calls
| | New vector              :      2.817u      0.250s      0.057w    130 calls
HF: Form C                  :     28.317u      1.650s      0.564w    156 calls
HF: Form D                  :      0.367u      0.067s      0.007w    156 calls
Grad: V T Perturb           :    258.950u     24.467s      9.908w     13 calls
Grad: S                     :      1.067u      0.033s      0.024w     13 calls
Grad: JK                    :    729.917u     42.433s     20.319w     13 calls
| JKGrad: Amn               :    167.167u      8.833s      5.033w     13 calls
| JKGrad: Awmn              :      0.017u      0.000s      0.000w     13 calls
| JKGrad: AB                :    170.367u     11.500s      4.438w     13 calls
| JKGrad: UV                :      3.483u      0.267s      0.072w     13 calls
| JKGrad: ABx               :    126.283u      8.767s      3.851w     13 calls
| JKGrad: Amnx              :    224.633u      9.833s      6.143w     13 calls
Grad: XC                    :    154.067u      5.117s      2.984w     13 calls
| Properties                :     31.014p                          15825 calls
| Functional                :      2.199p                          15825 calls
| V_xc gradient             :     24.579p                          15825 calls

***********************************************************

Host: localhost.localdomain

Timers On : Wed Apr 10 13:50:08 2019
Timers Off: Wed Apr 10 13:50:09 2019

Wall Time:        0.98 seconds


-----------------------------------------------------------

***********************************************************

Host: localhost.localdomain

Timers On : Wed Apr 10 14:11:10 2019
Timers Off: Wed Apr 10 14:12:21 2019

Wall Time:       71.20 seconds

V: Grid                     :     44.517u      3.200s      1.917w     13 calls
DFH: initialize()           :    268.983u     15.700s      6.485w     13 calls
DFH: sparsity prep          :     26.833u      2.183s      0.544w     13 calls
DFH: AO Construction        :     46.717u      0.733s      0.890w     13 calls
DFH: AO-Met. Contraction    :     12.000u      1.317s      0.250w     13 calls
HF: Form H                  :      8.100u      0.717s      0.170w     13 calls
HF: Form S/X                :      2.417u      0.150s      0.048w     13 calls
HF: Guess                   :     83.350u      5.350s      1.870w     13 calls
SAD Guess                   :     82.900u      5.317s      1.861w      2 calls
HF: Form G                  :   1006.017u      9.550s     19.047w    154 calls
RV: Form V                  :    960.133u      5.567s     18.111w    154 calls
Properties                  :    423.959p                         204946 calls
Functional                  :     28.072p                         204946 calls
V_xc                        :    140.105p                         189121 calls
JK: D                       :      0.600u      0.083s      0.012w    154 calls
JK: USO2AO                  :      0.550u      0.050s      0.011w    154 calls
JK: JK                      :     41.867u      3.550s      0.853w    154 calls
DFH: compute_JK()           :     41.683u      3.517s      0.846w    154 calls
DFH: Grabbing AOs           :      0.133u      0.000s      0.003w    154 calls
DFH: compute_J              :     16.850u      0.167s      0.321w    154 calls
DFH: compute_K              :     21.933u      3.150s      0.471w    154 calls
JK: AO2USO                  :      0.067u      0.033s      0.003w    154 calls
HF: Form F                  :      1.200u      0.117s      0.023w    154 calls
HF: DIIS                    :     15.700u      1.417s      0.323w    154 calls
DIISManager::add_entry      :      4.783u      0.333s      0.099w    141 calls
DIISManager::extrapolate    :      7.017u      0.700s      0.141w    128 calls
bMatrix setup               :      3.167u      0.317s      0.065w    128 calls
bMatrix pseudoinverse       :      0.617u      0.050s      0.012w    128 calls
New vector                  :      2.650u      0.233s      0.053w    128 calls
HF: Form C                  :     26.700u      1.533s      0.535w    154 calls
HF: Form D                  :      0.417u      0.033s      0.007w    154 calls
Grad: V T Perturb           :    254.700u     23.050s      9.617w     13 calls
Grad: S                     :      0.983u      0.067s      0.023w     13 calls
Grad: JK                    :    719.117u     41.233s     20.220w     13 calls
JKGrad: Amn                 :    166.967u      8.483s      5.178w     13 calls
JKGrad: Awmn                :      0.017u      0.000s      0.000w     13 calls
JKGrad: AB                  :    166.383u     10.817s      4.311w     13 calls
JKGrad: UV                  :      3.300u      0.267s      0.067w     13 calls
JKGrad: ABx                 :    124.517u      8.333s      3.854w     13 calls
JKGrad: Amnx                :    221.600u     10.517s      6.067w     13 calls
Grad: XC                    :    157.133u      4.750s      3.110w     13 calls
V_xc gradient               :     25.219p                          15825 calls

-----------------------------------------------------------
V: Grid                     :     44.517u      3.200s      1.917w     13 calls
DFH: initialize()           :    268.983u     15.700s      6.485w     13 calls
| DFH: sparsity prep        :     26.833u      2.183s      0.544w     13 calls
| DFH: AO Construction      :     46.717u      0.733s      0.890w     13 calls
| DFH: AO-Met. Contraction  :     12.000u      1.317s      0.250w     13 calls
HF: Form H                  :      8.100u      0.717s      0.170w     13 calls
HF: Form S/X                :      2.417u      0.150s      0.048w     13 calls
HF: Guess                   :     83.350u      5.350s      1.870w     13 calls
| SAD Guess                 :     82.900u      5.317s      1.861w      2 calls
HF: Form G                  :   1006.017u      9.550s     19.047w    154 calls
| RV: Form V                :    960.133u      5.567s     18.111w    154 calls
| | Properties              :    392.037p                         189121 calls
| | Functional              :     25.807p                         189121 calls
| | V_xc                    :    140.105p                         189121 calls
| JK: D                     :      0.600u      0.083s      0.012w    154 calls
| JK: USO2AO                :      0.550u      0.050s      0.011w    154 calls
| JK: JK                    :     41.867u      3.550s      0.853w    154 calls
| | DFH: compute_JK()       :     41.683u      3.517s      0.846w    154 calls
| | | DFH: Grabbing AOs     :      0.133u      0.000s      0.003w    154 calls
| | | DFH: compute_J        :     16.850u      0.167s      0.321w    154 calls
| | | DFH: compute_K        :     21.933u      3.150s      0.471w    154 calls
| JK: AO2USO                :      0.067u      0.033s      0.003w    154 calls
HF: Form F                  :      1.200u      0.117s      0.023w    154 calls
HF: DIIS                    :     15.700u      1.417s      0.323w    154 calls
| DIISManager::add_entry    :      4.783u      0.333s      0.099w    141 calls
| DIISManager::extrapolate  :      7.017u      0.700s      0.141w    128 calls
| | bMatrix setup           :      3.167u      0.317s      0.065w    128 calls
| | bMatrix pseudoinverse   :      0.617u      0.050s      0.012w    128 calls
| | New vector              :      2.650u      0.233s      0.053w    128 calls
HF: Form C                  :     26.700u      1.533s      0.535w    154 calls
HF: Form D                  :      0.417u      0.033s      0.007w    154 calls
Grad: V T Perturb           :    254.700u     23.050s      9.617w     13 calls
Grad: S                     :      0.983u      0.067s      0.023w     13 calls
Grad: JK                    :    719.117u     41.233s     20.220w     13 calls
| JKGrad: Amn               :    166.967u      8.483s      5.178w     13 calls
| JKGrad: Awmn              :      0.017u      0.000s      0.000w     13 calls
| JKGrad: AB                :    166.383u     10.817s      4.311w     13 calls
| JKGrad: UV                :      3.300u      0.267s      0.067w     13 calls
| JKGrad: ABx               :    124.517u      8.333s      3.854w     13 calls
| JKGrad: Amnx              :    221.600u     10.517s      6.067w     13 calls
Grad: XC                    :    157.133u      4.750s      3.110w     13 calls
| Properties                :     31.922p                          15825 calls
| Functional                :      2.265p                          15825 calls
| V_xc gradient             :     25.219p                          15825 calls

***********************************************************

Host: localhost.localdomain

Timers On : Wed Apr 10 14:14:13 2019
Timers Off: Wed Apr 10 14:15:45 2019

Wall Time:       92.66 seconds

V: Grid                     :     41.283u      3.467s      1.960w     13 calls
DFH: initialize()           :    468.733u     27.717s     11.158w     19 calls
DFH: sparsity prep          :     54.567u      3.883s      1.096w     19 calls
DFH: AO Construction        :    108.417u      2.533s      2.079w     21 calls
DFH: AO-Met. Contraction    :     27.117u      2.950s      0.567w     21 calls
DFH: Total Workflow         :    206.550u      4.500s      3.977w     79 calls
HF: Form H                  :      8.600u      0.617s      0.177w     14 calls
HF: Form S/X                :      2.767u      0.183s      0.055w     14 calls
HF: Guess                   :    131.183u      8.617s      3.025w     14 calls
SAD Guess                   :    130.500u      8.567s      3.012w      3 calls
HF: Form G                  :   1188.833u     28.250s     22.830w    173 calls
RV: Form V                  :   1000.667u      6.583s     18.888w    156 calls
Properties                  :    446.192p                         207294 calls
Functional                  :     28.343p                         207294 calls
V_xc                        :    141.083p                         191469 calls
JK: D                       :      1.183u      0.050s      0.021w    221 calls
JK: USO2AO                  :      1.150u      0.083s      0.023w    221 calls
JK: JK                      :    282.283u     32.900s      5.917w    221 calls
DFH: compute_JK()           :    281.883u     32.833s      5.907w    221 calls
DFH: Grabbing AOs           :    113.200u     12.867s      2.367w    238 calls
DFH: compute_J              :     64.133u      1.033s      1.225w    238 calls
DFH: compute_K              :     97.183u     18.217s      2.166w    238 calls
JK: AO2USO                  :      0.167u      0.050s      0.005w    221 calls
HF: Form F                  :      1.300u      0.083s      0.025w    173 calls
HF: DIIS                    :     21.750u      2.017s      0.450w    173 calls
DIISManager::add_entry      :      9.150u      0.700s      0.192w    182 calls
DIISManager::extrapolate    :     11.933u      1.083s      0.246w    168 calls
bMatrix setup               :      5.733u      0.450s      0.119w    168 calls
bMatrix pseudoinverse       :      0.683u      0.067s      0.015w    168 calls
New vector                  :      4.633u      0.467s      0.097w    168 calls
HF: Form C                  :     36.250u      2.067s      0.715w    173 calls
HF: Form D                  :      0.267u      0.100s      0.008w    173 calls
Grad: V T Perturb           :    258.583u     24.583s      9.707w     13 calls
Grad: S                     :      0.933u      0.033s      0.022w     13 calls
Grad: JK                    :    735.750u     41.367s     20.527w     13 calls
JKGrad: Amn                 :    171.067u      9.567s      5.163w     13 calls
JKGrad: Awmn                :      0.017u      0.000s      0.000w     13 calls
JKGrad: AB                  :    172.683u      9.500s      4.396w     13 calls
JKGrad: UV                  :      3.533u      0.283s      0.071w     13 calls
JKGrad: ABx                 :    126.017u      8.983s      3.972w     13 calls
JKGrad: Amnx                :    225.683u      9.867s      6.165w     13 calls
Grad: XC                    :    162.767u      6.200s      3.169w     13 calls
V_xc gradient               :     25.141p                          15825 calls
FISAPT: Setup               :     55.000u      3.783s      1.524w      1 calls
FISAPT: Monomer SCF         :     57.017u      6.167s      1.187w      1 calls
FISAPT: Subsys E            :      3.333u      0.450s      0.071w      1 calls
FISAPT:SAPT:elst            :      0.017u      0.000s      0.000w      1 calls
FISAPT:SAPT:exch            :      7.233u      0.967s      0.154w      1 calls
FISAPT:SAPT:ind             :     53.533u      5.667s      1.110w      1 calls
FISAPT:FSAPT:loc            :      4.667u      0.367s      0.094w      1 calls
FISAPT:FSAPT:elst           :     81.133u      3.617s      1.701w      1 calls
DFH: transform()            :    238.567u      9.300s      4.724w      4 calls
DFH: Total Transform        :      9.150u      0.583s      0.180w     52 calls
DFH: 1st Contraction        :      6.100u      0.400s      0.120w     22 calls
DFH: 2nd Contraction        :      2.917u      0.183s      0.058w     30 calls
DFH: MO to disk             :     13.333u      1.250s      0.274w     30 calls
DFH: Direct Contractions    :     63.083u      5.600s      1.363w      4 calls
FISAPT:FSAPT:exch           :     71.083u      3.267s      1.511w      1 calls
FISAPT:FSAPT:ind            :     90.350u      4.867s      1.927w      1 calls
FISAPT:FSAPT:disp           :    118.067u      6.000s      2.518w      1 calls

-----------------------------------------------------------
V: Grid                     :     41.283u      3.467s      1.960w     13 calls
DFH: initialize()           :    366.450u     20.683s      8.510w     14 calls
| DFH: sparsity prep        :     32.733u      2.217s      0.656w     14 calls
| DFH: AO Construction      :     47.433u      0.833s      0.905w     13 calls
| DFH: AO-Met. Contraction  :     11.567u      1.400s      0.246w     13 calls
| DFH: Total Workflow       :     49.900u      1.417s      0.962w      4 calls
| | DFH: AO Construction    :     40.617u      1.083s      0.782w      4 calls
| | DFH: AO-Met. Contraction:      9.283u      0.333s      0.180w      4 calls
HF: Form H                  :      8.600u      0.617s      0.177w     14 calls
HF: Form S/X                :      2.767u      0.183s      0.055w     14 calls
HF: Guess                   :    131.183u      8.617s      3.025w     14 calls
| SAD Guess                 :    130.500u      8.567s      3.012w      3 calls
HF: Form G                  :   1188.833u     28.250s     22.830w    173 calls
| RV: Form V                :   1000.667u      6.583s     18.888w    156 calls
| | Properties              :    414.068p                         191469 calls
| | Functional              :     26.117p                         191469 calls
| | V_xc                    :    141.083p                         191469 calls
| JK: D                     :      0.850u      0.033s      0.014w    173 calls
| JK: USO2AO                :      0.650u      0.067s      0.013w    173 calls
| JK: JK                    :    183.500u     21.267s      3.846w    173 calls
| | DFH: compute_JK()       :    183.200u     21.200s      3.838w    173 calls
| | | DFH: Grabbing AOs     :    113.150u     12.850s      2.366w    190 calls
| | | DFH: compute_J        :     27.400u      0.383s      0.523w    190 calls
| | | DFH: compute_K        :     38.100u      7.583s      0.857w    190 calls
| JK: AO2USO                :      0.117u      0.050s      0.004w    173 calls
HF: Form F                  :      1.300u      0.083s      0.025w    173 calls
HF: DIIS                    :     21.750u      2.017s      0.450w    173 calls
| DIISManager::add_entry    :      7.317u      0.533s      0.155w    159 calls
| DIISManager::extrapolate  :      9.267u      0.883s      0.191w    145 calls
| | bMatrix setup           :      4.483u      0.350s      0.093w    145 calls
| | bMatrix pseudoinverse   :      0.600u      0.033s      0.013w    145 calls
| | New vector              :      3.367u      0.417s      0.072w    145 calls
HF: Form C                  :     36.250u      2.067s      0.715w    173 calls
HF: Form D                  :      0.267u      0.100s      0.008w    173 calls
Grad: V T Perturb           :    258.583u     24.583s      9.707w     13 calls
Grad: S                     :      0.933u      0.033s      0.022w     13 calls
Grad: JK                    :    735.750u     41.367s     20.527w     13 calls
| JKGrad: Amn               :    171.067u      9.567s      5.163w     13 calls
| JKGrad: Awmn              :      0.017u      0.000s      0.000w     13 calls
| JKGrad: AB                :    172.683u      9.500s      4.396w     13 calls
| JKGrad: UV                :      3.533u      0.283s      0.071w     13 calls
| JKGrad: ABx               :    126.017u      8.983s      3.972w     13 calls
| JKGrad: Amnx              :    225.683u      9.867s      6.165w     13 calls
Grad: XC                    :    162.767u      6.200s      3.169w     13 calls
| Properties                :     32.124p                          15825 calls
| Functional                :      2.226p                          15825 calls
| V_xc gradient             :     25.141p                          15825 calls
FISAPT: Setup               :     55.000u      3.783s      1.524w      1 calls
| DFH: initialize()         :     43.967u      2.783s      1.077w      1 calls
| | DFH: sparsity prep      :      3.400u      0.250s      0.069w      1 calls
| | DFH: AO Construction    :     20.367u      0.617s      0.392w      4 calls
| | DFH: AO-Met. Contraction:      6.267u      1.217s      0.141w      4 calls
| JK: D                     :      0.000u      0.000s      0.000w      1 calls
| JK: USO2AO                :      0.000u      0.000s      0.000w      1 calls
| JK: JK                    :      0.050u      0.050s      0.002w      1 calls
| | DFH: compute_JK()       :      0.050u      0.050s      0.002w      1 calls
| | | DFH: Grabbing AOs     :      0.017u      0.000s      0.000w      1 calls
| | | DFH: compute_J        :      0.000u      0.000s      0.000w      1 calls
| | | DFH: compute_K        :      0.000u      0.000s      0.000w      1 calls
| JK: AO2USO                :      0.000u      0.000s      0.000w      1 calls
FISAPT: Monomer SCF         :     57.017u      6.167s      1.187w      1 calls
| JK: D                     :      0.150u      0.000s      0.003w     25 calls
| JK: USO2AO                :      0.183u      0.000s      0.004w     25 calls
| JK: JK                    :     38.150u      4.767s      0.805w     25 calls
| | DFH: compute_JK()       :     38.133u      4.767s      0.804w     25 calls
| | | DFH: Grabbing AOs     :      0.000u      0.017s      0.001w     25 calls
| | | DFH: compute_J        :     14.250u      0.267s      0.273w     25 calls
| | | DFH: compute_K        :     22.483u      4.350s      0.503w     25 calls
| JK: AO2USO                :      0.033u      0.000s      0.001w     25 calls
| DIISManager::add_entry    :      1.833u      0.167s      0.037w     23 calls
| DIISManager::extrapolate  :      2.667u      0.200s      0.055w     23 calls
| | bMatrix setup           :      1.250u      0.100s      0.026w     23 calls
| | bMatrix pseudoinverse   :      0.083u      0.033s      0.002w     23 calls
| | New vector              :      1.267u      0.050s      0.025w     23 calls
FISAPT: Subsys E            :      3.333u      0.450s      0.071w      1 calls
| JK: D                     :      0.017u      0.000s      0.000w      1 calls
| JK: USO2AO                :      0.033u      0.000s      0.001w      1 calls
| JK: JK                    :      2.950u      0.383s      0.063w      1 calls
| | DFH: compute_JK()       :      2.950u      0.383s      0.063w      1 calls
| | | DFH: Grabbing AOs     :      0.017u      0.000s      0.000w      1 calls
| | | DFH: compute_J        :      1.033u      0.067s      0.021w      1 calls
| | | DFH: compute_K        :      1.833u      0.317s      0.041w      1 calls
| JK: AO2USO                :      0.000u      0.000s      0.000w      1 calls
FISAPT:SAPT:elst            :      0.017u      0.000s      0.000w      1 calls
FISAPT:SAPT:exch            :      7.233u      0.967s      0.154w      1 calls
| JK: D                     :      0.033u      0.017s      0.000w      3 calls
| JK: USO2AO                :      0.017u      0.017s      0.001w      3 calls
| JK: JK                    :      6.717u      0.933s      0.144w      3 calls
| | DFH: compute_JK()       :      6.683u      0.933s      0.143w      3 calls
| | | DFH: Grabbing AOs     :      0.000u      0.000s      0.000w      3 calls
| | | DFH: compute_J        :      2.400u      0.017s      0.046w      3 calls
| | | DFH: compute_K        :      4.117u      0.900s      0.094w      3 calls
| JK: AO2USO                :      0.000u      0.000s      0.000w      3 calls
FISAPT:SAPT:ind             :     53.533u      5.667s      1.110w      1 calls
| JK: D                     :      0.133u      0.000s      0.003w     18 calls
| JK: USO2AO                :      0.267u      0.000s      0.004w     18 calls
| JK: JK                    :     50.917u      5.500s      1.058w     18 calls
| | DFH: compute_JK()       :     50.867u      5.500s      1.057w     18 calls
| | | DFH: Grabbing AOs     :      0.017u      0.000s      0.000w     18 calls
| | | DFH: compute_J        :     19.050u      0.300s      0.363w     18 calls
| | | DFH: compute_K        :     30.650u      5.067s      0.670w     18 calls
| JK: AO2USO                :      0.017u      0.000s      0.000w     18 calls
FISAPT:FSAPT:loc            :      4.667u      0.367s      0.094w      1 calls
FISAPT:FSAPT:elst           :     81.133u      3.617s      1.701w      1 calls
| DFH: initialize()         :     16.700u      1.317s      0.416w      1 calls
| | DFH: sparsity prep      :      5.750u      0.433s      0.116w      1 calls
| DFH: transform()          :     54.383u      1.583s      1.055w      1 calls
| | DFH: Total Workflow     :     39.583u      0.617s      0.754w      5 calls
| | | DFH: Total Transform  :      1.017u      0.083s      0.021w      4 calls
| | | | DFH: 1st Contraction:      0.950u      0.083s      0.019w      2 calls
| | | | DFH: 2nd Contraction:      0.067u      0.000s      0.001w      2 calls
| | DFH: MO to disk         :      0.283u      0.017s      0.006w      2 calls
| | DFH: Direct Contractions:     11.283u      0.883s      0.234w      1 calls
| | | DFH: Total Workflow   :      0.200u      0.050s      0.005w      2 calls
FISAPT:FSAPT:exch           :     71.083u      3.267s      1.511w      1 calls
| DFH: initialize()         :     14.267u      0.767s      0.385w      1 calls
| | DFH: sparsity prep      :      4.883u      0.317s      0.098w      1 calls
| DFH: transform()          :     53.883u      2.200s      1.063w      1 calls
| | DFH: Total Workflow     :     36.067u      0.633s      0.688w     10 calls
| | | DFH: Total Transform  :      1.583u      0.133s      0.032w      8 calls
| | | | DFH: 1st Contraction:      1.050u      0.117s      0.022w      4 calls
| | | | DFH: 2nd Contraction:      0.500u      0.017s      0.010w      4 calls
| | DFH: MO to disk         :      1.900u      0.233s      0.040w      4 calls
| | DFH: Direct Contractions:     13.150u      1.283s      0.283w      1 calls
| | | DFH: Total Workflow   :      1.300u      0.333s      0.035w      2 calls
FISAPT:FSAPT:ind            :     90.350u      4.867s      1.927w      1 calls
| DFH: initialize()         :     12.617u      0.933s      0.346w      1 calls
| | DFH: sparsity prep      :      3.400u      0.267s      0.069w      1 calls
| DFH: transform()          :     56.450u      2.183s      1.113w      1 calls
| | DFH: Total Workflow     :     36.967u      0.583s      0.704w     10 calls
| | | DFH: Total Transform  :      1.500u      0.183s      0.031w      8 calls
| | | | DFH: 1st Contraction:      1.000u      0.133s      0.021w      4 calls
| | | | DFH: 2nd Contraction:      0.467u      0.050s      0.010w      4 calls
| | DFH: MO to disk         :      2.450u      0.283s      0.052w      4 calls
| | DFH: Direct Contractions:     13.917u      1.300s      0.298w      1 calls
| | | DFH: Total Workflow   :      1.183u      0.250s      0.031w      2 calls
FISAPT:FSAPT:disp           :    118.067u      6.000s      2.518w      1 calls
| DFH: initialize()         :     14.733u      1.233s      0.425w      1 calls
| | DFH: sparsity prep      :      4.400u      0.400s      0.090w      1 calls
| DFH: transform()          :     73.850u      3.333s      1.492w      1 calls
| | DFH: Total Workflow     :     37.317u      0.450s      0.707w     34 calls
| | | DFH: Total Transform  :      5.050u      0.183s      0.097w     32 calls
| | | | DFH: 1st Contraction:      3.100u      0.067s      0.059w     12 calls
| | | | DFH: 2nd Contraction:      1.883u      0.117s      0.037w     20 calls
| | DFH: MO to disk         :      8.700u      0.717s      0.177w     20 calls
| | DFH: Direct Contractions:     24.733u      2.133s      0.549w      1 calls
| | | DFH: Total Workflow   :      4.033u      0.167s      0.091w     10 calls

***********************************************************

Host: localhost.localdomain

Timers On : Wed Apr 10 14:41:09 2019
Timers Off: Wed Apr 10 14:42:19 2019

Wall Time:       70.58 seconds

V: Grid                     :     37.483u      2.650s      1.837w     13 calls
DFH: initialize()           :    265.200u     15.983s      6.461w     13 calls
DFH: sparsity prep          :     26.283u      2.117s      0.533w     13 calls
DFH: AO Construction        :     45.267u      0.667s      0.862w     13 calls
DFH: AO-Met. Contraction    :     11.617u      1.150s      0.239w     13 calls
HF: Form H                  :      7.133u      0.550s      0.149w     13 calls
HF: Form S/X                :      2.383u      0.200s      0.048w     13 calls
HF: Guess                   :     82.967u      5.033s      1.802w     13 calls
SAD Guess                   :     82.550u      5.017s      1.794w      2 calls
HF: Form G                  :    990.733u     10.733s     18.780w    157 calls
RV: Form V                  :    945.017u      6.100s     17.838w    157 calls
Properties                  :    411.515p                         208572 calls
Functional                  :     28.497p                         208572 calls
V_xc                        :    141.249p                         192747 calls
JK: D                       :      0.700u      0.100s      0.012w    157 calls
JK: USO2AO                  :      0.617u      0.067s      0.011w    157 calls
JK: JK                      :     41.517u      4.167s      0.857w    157 calls
DFH: compute_JK()           :     41.317u      4.100s      0.850w    157 calls
DFH: Grabbing AOs           :      0.100u      0.017s      0.003w    157 calls
DFH: compute_J              :     16.350u      0.250s      0.313w    157 calls
DFH: compute_K              :     22.117u      3.633s      0.480w    157 calls
JK: AO2USO                  :      0.150u      0.017s      0.003w    157 calls
HF: Form F                  :      1.283u      0.067s      0.023w    157 calls
HF: DIIS                    :     16.817u      1.700s      0.350w    157 calls
DIISManager::add_entry      :      6.333u      0.600s      0.129w    144 calls
DIISManager::extrapolate    :      6.517u      0.783s      0.138w    131 calls
bMatrix setup               :      2.933u      0.200s      0.061w    131 calls
bMatrix pseudoinverse       :      0.500u      0.050s      0.013w    131 calls
New vector                  :      2.617u      0.450s      0.054w    131 calls
HF: Form C                  :     27.883u      1.383s      0.550w    157 calls
HF: Form D                  :      0.200u      0.017s      0.007w    157 calls
Grad: V T Perturb           :    257.450u     25.017s      9.355w     13 calls
Grad: S                     :      1.000u      0.050s      0.022w     13 calls
Grad: JK                    :    735.417u     42.317s     20.281w     13 calls
JKGrad: Amn                 :    171.683u      8.517s      5.189w     13 calls
JKGrad: Awmn                :      0.050u      0.017s      0.000w     13 calls
JKGrad: AB                  :    171.850u     12.567s      4.388w     13 calls
JKGrad: UV                  :      3.533u      0.300s      0.072w     13 calls
JKGrad: ABx                 :    126.383u      8.567s      3.833w     13 calls
JKGrad: Amnx                :    226.867u      9.667s      6.083w     13 calls
Grad: XC                    :    156.100u      6.100s      3.043w     13 calls
V_xc gradient               :     24.487p                          15825 calls

-----------------------------------------------------------
V: Grid                     :     37.483u      2.650s      1.837w     13 calls
DFH: initialize()           :    265.200u     15.983s      6.461w     13 calls
| DFH: sparsity prep        :     26.283u      2.117s      0.533w     13 calls
| DFH: AO Construction      :     45.267u      0.667s      0.862w     13 calls
| DFH: AO-Met. Contraction  :     11.617u      1.150s      0.239w     13 calls
HF: Form H                  :      7.133u      0.550s      0.149w     13 calls
HF: Form S/X                :      2.383u      0.200s      0.048w     13 calls
HF: Guess                   :     82.967u      5.033s      1.802w     13 calls
| SAD Guess                 :     82.550u      5.017s      1.794w      2 calls
HF: Form G                  :    990.733u     10.733s     18.780w    157 calls
| RV: Form V                :    945.017u      6.100s     17.838w    157 calls
| | Properties              :    380.895p                         192747 calls
| | Functional              :     26.244p                         192747 calls
| | V_xc                    :    141.249p                         192747 calls
| JK: D                     :      0.700u      0.100s      0.012w    157 calls
| JK: USO2AO                :      0.617u      0.067s      0.011w    157 calls
| JK: JK                    :     41.517u      4.167s      0.857w    157 calls
| | DFH: compute_JK()       :     41.317u      4.100s      0.850w    157 calls
| | | DFH: Grabbing AOs     :      0.100u      0.017s      0.003w    157 calls
| | | DFH: compute_J        :     16.350u      0.250s      0.313w    157 calls
| | | DFH: compute_K        :     22.117u      3.633s      0.480w    157 calls
| JK: AO2USO                :      0.150u      0.017s      0.003w    157 calls
HF: Form F                  :      1.283u      0.067s      0.023w    157 calls
HF: DIIS                    :     16.817u      1.700s      0.350w    157 calls
| DIISManager::add_entry    :      6.333u      0.600s      0.129w    144 calls
| DIISManager::extrapolate  :      6.517u      0.783s      0.138w    131 calls
| | bMatrix setup           :      2.933u      0.200s      0.061w    131 calls
| | bMatrix pseudoinverse   :      0.500u      0.050s      0.013w    131 calls
| | New vector              :      2.617u      0.450s      0.054w    131 calls
HF: Form C                  :     27.883u      1.383s      0.550w    157 calls
HF: Form D                  :      0.200u      0.017s      0.007w    157 calls
Grad: V T Perturb           :    257.450u     25.017s      9.355w     13 calls
Grad: S                     :      1.000u      0.050s      0.022w     13 calls
Grad: JK                    :    735.417u     42.317s     20.281w     13 calls
| JKGrad: Amn               :    171.683u      8.517s      5.189w     13 calls
| JKGrad: Awmn              :      0.050u      0.017s      0.000w     13 calls
| JKGrad: AB                :    171.850u     12.567s      4.388w     13 calls
| JKGrad: UV                :      3.533u      0.300s      0.072w     13 calls
| JKGrad: ABx               :    126.383u      8.567s      3.833w     13 calls
| JKGrad: Amnx              :    226.867u      9.667s      6.083w     13 calls
Grad: XC                    :    156.100u      6.100s      3.043w     13 calls
| Properties                :     30.619p                          15825 calls
| Functional                :      2.254p                          15825 calls
| V_xc gradient             :     24.487p                          15825 calls

***********************************************************

Host: localhost.localdomain

Timers On : Fri Apr 12 16:12:40 2019
Timers Off: Fri Apr 12 16:42:22 2019

Wall Time:     1782.68 seconds

V: Grid                     :     35.117u      2.250s      1.889w     13 calls
DFH: initialize()           :  16463.717u    990.717s    388.741w    548 calls
DFH: sparsity prep          :   2142.833u    159.667s     43.179w    548 calls
DFH: AO Construction        :   4953.200u    126.567s     95.375w    729 calls
DFH: AO-Met. Contraction    :   1345.483u    135.700s     27.797w    729 calls
DFH: Total Workflow         :  18162.450u    411.783s    350.384w   7035 calls
HF: Form H                  :     61.933u      4.750s      1.285w    103 calls
HF: Form S/X                :     44.300u      2.483s      0.877w    103 calls
HF: Guess                   :   4317.150u    309.600s     97.651w    103 calls
SAD Guess                   :   4300.383u    308.317s     97.310w     92 calls
HF: Form G                  :  13458.567u   1458.450s    279.763w   1656 calls
RV: Form V                  :    976.900u      6.400s     18.444w    155 calls
Properties                  :    434.301p                         206043 calls
Functional                  :     28.441p                         206043 calls
V_xc                        :    138.289p                         190217 calls
JK: D                       :     40.067u      3.250s      0.834w   6128 calls
JK: USO2AO                  :     49.083u      3.817s      0.993w   6128 calls
JK: JK                      :  21096.883u   2505.800s    442.716w   6128 calls
DFH: compute_JK()           :  21083.200u   2504.517s    442.431w   6128 calls
DFH: Grabbing AOs           :   9959.533u   1085.633s    207.134w   7629 calls
DFH: compute_J              :   4062.100u     69.983s     77.555w   7629 calls
DFH: compute_K              :   6669.500u   1311.683s    149.714w   7629 calls
JK: AO2USO                  :      6.483u      0.867s      0.134w   6128 calls
HF: Form F                  :     14.433u      1.367s      0.301w   1656 calls
HF: DIIS                    :    402.200u     35.250s      8.238w   1656 calls
DIISManager::add_entry      :    271.250u     22.550s      5.599w   3750 calls
DIISManager::extrapolate    :    434.083u     42.450s      8.922w   3647 calls
bMatrix setup               :    213.567u     22.033s      4.396w   3647 calls
bMatrix pseudoinverse       :     17.067u      1.483s      0.352w   3647 calls
New vector                  :    187.233u     17.400s      3.847w   3647 calls
HF: Form C                  :    689.800u     38.850s     13.677w   1656 calls
HF: Form D                  :      4.517u      0.500s      0.095w   1656 calls
Grad: V T Perturb           :    254.100u     23.950s      9.770w     13 calls
Grad: S                     :      1.000u      0.050s      0.023w     13 calls
Grad: JK                    :    719.983u     42.317s     20.393w     13 calls
JKGrad: Amn                 :    169.167u      7.667s      5.183w     13 calls
JKGrad: Awmn                :      0.000u      0.000s      0.000w     13 calls
JKGrad: AB                  :    165.983u     11.967s      4.370w     13 calls
JKGrad: UV                  :      3.417u      0.267s      0.069w     13 calls
JKGrad: ABx                 :    123.733u      9.683s      3.932w     13 calls
JKGrad: Amnx                :    222.400u     10.433s      6.125w     13 calls
Grad: XC                    :    181.550u      7.367s      3.618w     13 calls
V_xc gradient               :     25.218p                          15826 calls
FISAPT: Setup               :   4758.100u    314.767s    135.041w     89 calls
FISAPT: Monomer SCF         :   5145.317u    536.067s    106.669w     89 calls
FISAPT: Subsys E            :    285.650u     30.733s      5.934w     89 calls
FISAPT:SAPT:elst            :      0.117u      0.017s      0.007w     89 calls
FISAPT:SAPT:exch            :    609.050u     91.350s     13.135w     89 calls
FISAPT:SAPT:ind             :   4586.300u    536.917s     96.108w     89 calls
FISAPT:FSAPT:loc            :    314.583u     22.983s      6.328w     89 calls
FISAPT:FSAPT:elst           :   6482.733u    264.733s    135.646w     89 calls
DFH: transform()            :  20912.417u    797.867s    413.189w    356 calls
DFH: Total Transform        :    767.433u     58.550s     15.501w   4628 calls
DFH: 1st Contraction        :    503.583u     31.300s     10.059w   1958 calls
DFH: 2nd Contraction        :    253.983u     26.083s      5.246w   2670 calls
DFH: MO to disk             :   1141.667u    125.383s     23.773w   2670 calls
DFH: Direct Contractions    :   5348.833u    435.783s    114.428w    356 calls
FISAPT:FSAPT:exch           :   6271.867u    290.600s    133.453w     89 calls
FISAPT:FSAPT:ind            :   7963.317u    414.433s    170.693w     89 calls
FISAPT:FSAPT:disp           :  10604.967u    518.933s    221.840w     89 calls

-----------------------------------------------------------
V: Grid                     :     35.117u      2.250s      1.889w     13 calls
DFH: initialize()           :   7921.867u    407.283s    167.138w    103 calls
| DFH: sparsity prep        :    397.917u     30.283s      8.030w    103 calls
| DFH: AO Construction      :     49.267u      0.833s      0.940w     13 calls
| DFH: AO-Met. Contraction  :     11.550u      1.617s      0.246w     13 calls
| DFH: Total Workflow       :   4071.200u    109.267s     78.511w    360 calls
| | DFH: AO Construction    :   3271.250u     80.233s     62.960w    360 calls
| | DFH: AO-Met. Contraction:    798.500u     28.967s     15.527w    360 calls
HF: Form H                  :     61.933u      4.750s      1.285w    103 calls
HF: Form S/X                :     44.300u      2.483s      0.877w    103 calls
HF: Guess                   :   4317.150u    309.600s     97.651w    103 calls
| SAD Guess                 :   4300.383u    308.317s     97.310w     92 calls
HF: Form G                  :  13458.567u   1458.450s    279.763w   1656 calls
| RV: Form V                :    976.900u      6.400s     18.444w    155 calls
| | Properties              :    402.976p                         190217 calls
| | Functional              :     26.159p                         190217 calls
| | V_xc                    :    138.289p                         190217 calls
| JK: D                     :      9.033u      0.617s      0.185w   1656 calls
| JK: USO2AO                :      9.983u      0.733s      0.200w   1656 calls
| JK: JK                    :  12430.683u   1447.467s    260.292w   1656 calls
| | DFH: compute_JK()       :  12426.917u   1447.117s    260.213w   1656 calls
| | | DFH: Grabbing AOs     :   9954.567u   1085.233s    207.040w   3157 calls
| | | DFH: compute_J        :    926.017u     20.000s     17.769w   3157 calls
| | | DFH: compute_K        :   1395.900u    327.200s     32.312w   3157 calls
| JK: AO2USO                :      1.967u      0.267s      0.038w   1656 calls
HF: Form F                  :     14.433u      1.367s      0.301w   1656 calls
HF: DIIS                    :    402.200u     35.250s      8.238w   1656 calls
| DIISManager::add_entry    :    132.483u     10.583s      2.726w   1553 calls
| DIISManager::extrapolate  :    185.600u     17.800s      3.803w   1450 calls
| | bMatrix setup           :     94.083u      9.450s      1.931w   1450 calls
| | bMatrix pseudoinverse   :      7.083u      0.533s      0.143w   1450 calls
| | New vector              :     78.050u      7.300s      1.601w   1450 calls
HF: Form C                  :    689.800u     38.850s     13.677w   1656 calls
HF: Form D                  :      4.517u      0.500s      0.095w   1656 calls
Grad: V T Perturb           :    254.100u     23.950s      9.770w     13 calls
Grad: S                     :      1.000u      0.050s      0.023w     13 calls
Grad: JK                    :    719.983u     42.317s     20.393w     13 calls
| JKGrad: Amn               :    169.167u      7.667s      5.183w     13 calls
| JKGrad: Awmn              :      0.000u      0.000s      0.000w     13 calls
| JKGrad: AB                :    165.983u     11.967s      4.370w     13 calls
| JKGrad: UV                :      3.417u      0.267s      0.069w     13 calls
| JKGrad: ABx               :    123.733u      9.683s      3.932w     13 calls
| JKGrad: Amnx              :    222.400u     10.433s      6.125w     13 calls
Grad: XC                    :    181.550u      7.367s      3.618w     13 calls
| Properties                :     31.324p                          15826 calls
| Functional                :      2.282p                          15826 calls
| V_xc gradient             :     25.218p                          15826 calls
FISAPT: Setup               :   4758.100u    314.767s    135.041w     90 calls
| DFH: initialize()         :   3774.100u    241.083s     94.269w     89 calls
| | DFH: sparsity prep      :    359.550u     27.883s      7.264w     89 calls
| | DFH: AO Construction    :   1632.683u     45.500s     31.475w    356 calls
| | DFH: AO-Met. Contraction:    535.433u    105.117s     12.023w    356 calls
| JK: D                     :      0.100u      0.000s      0.002w     89 calls
| JK: USO2AO                :      0.067u      0.000s      0.002w     89 calls
| JK: JK                    :      3.617u      0.967s      0.087w     89 calls
| | DFH: compute_JK()       :      3.500u      0.967s      0.082w     89 calls
| | | DFH: Grabbing AOs     :      0.050u      0.017s      0.002w     89 calls
| | | DFH: compute_J        :      0.083u      0.000s      0.002w     89 calls
| | | DFH: compute_K        :      0.050u      0.000s      0.002w     89 calls
| JK: AO2USO                :      0.050u      0.017s      0.002w     89 calls
FISAPT: Monomer SCF         :   5145.317u    536.067s    106.669w     89 calls
| JK: D                     :     12.250u      1.067s      0.264w   2375 calls
| JK: USO2AO                :     14.717u      1.250s      0.304w   2375 calls
| JK: JK                    :   3494.167u    420.483s     73.436w   2375 calls
| | DFH: compute_JK()       :   3488.967u    420.000s     73.326w   2375 calls
| | | DFH: Grabbing AOs     :      2.717u      0.150s      0.050w   2375 calls
| | | DFH: compute_J        :   1277.267u     21.383s     24.366w   2375 calls
| | | DFH: compute_K        :   2099.200u    389.033s     46.678w   2375 calls
| JK: AO2USO                :      2.200u      0.350s      0.051w   2375 calls
| DIISManager::add_entry    :    138.767u     11.967s      2.873w   2197 calls
| DIISManager::extrapolate  :    248.483u     24.650s      5.119w   2197 calls
| | bMatrix setup           :    119.483u     12.583s      2.465w   2197 calls
| | bMatrix pseudoinverse   :      9.983u      0.950s      0.209w   2197 calls
| | New vector              :    109.183u     10.100s      2.247w   2197 calls
FISAPT: Subsys E            :    285.650u     30.733s      5.934w     89 calls
| JK: D                     :      1.583u      0.117s      0.029w     89 calls
| JK: USO2AO                :      2.317u      0.283s      0.048w     89 calls
| JK: JK                    :    253.133u     28.283s      5.279w     89 calls
| | DFH: compute_JK()       :    252.783u     28.267s      5.275w     89 calls
| | | DFH: Grabbing AOs     :      0.033u      0.000s      0.002w     89 calls
| | | DFH: compute_J        :     92.400u      1.367s      1.761w     89 calls
| | | DFH: compute_K        :    154.583u     26.383s      3.395w     89 calls
| JK: AO2USO                :      0.133u      0.017s      0.002w     89 calls
FISAPT:SAPT:elst            :      0.117u      0.017s      0.007w     89 calls
FISAPT:SAPT:exch            :    609.050u     91.350s     13.135w     89 calls
| JK: D                     :      2.017u      0.133s      0.044w    267 calls
| JK: USO2AO                :      3.050u      0.250s      0.059w    267 calls
| JK: JK                    :    560.067u     88.317s     12.166w    267 calls
| | DFH: compute_JK()       :    559.517u     88.183s     12.153w    267 calls
| | | DFH: Grabbing AOs     :      0.350u      0.033s      0.006w    267 calls
| | | DFH: compute_J        :    190.683u      3.383s      3.641w    267 calls
| | | DFH: compute_K        :    351.700u     83.317s      8.162w    267 calls
| JK: AO2USO                :      0.300u      0.017s      0.006w    267 calls
FISAPT:SAPT:ind             :   4586.300u    536.917s     96.108w     89 calls
| JK: D                     :     15.083u      1.317s      0.310w   1652 calls
| JK: USO2AO                :     18.950u      1.300s      0.380w   1652 calls
| JK: JK                    :   4355.217u    520.283s     91.457w   1652 calls
| | DFH: compute_JK()       :   4351.517u    519.983s     91.381w   1652 calls
| | | DFH: Grabbing AOs     :      1.817u      0.200s      0.034w   1652 calls
| | | DFH: compute_J        :   1575.650u     23.850s     30.016w   1652 calls
| | | DFH: compute_K        :   2668.067u    485.750s     59.165w   1652 calls
| JK: AO2USO                :      1.833u      0.200s      0.035w   1652 calls
FISAPT:FSAPT:loc            :    314.583u     22.983s      6.328w     89 calls
FISAPT:FSAPT:elst           :   6482.733u    264.733s    135.646w     89 calls
| DFH: initialize()         :   1287.850u     99.083s     32.582w     89 calls
| | DFH: sparsity prep      :    365.767u     28.783s      7.399w     89 calls
| DFH: transform()          :   4366.217u    109.183s     84.101w     89 calls
| | DFH: Total Workflow     :   3205.167u     48.517s     61.026w    445 calls
| | | DFH: Total Transform  :     89.633u      8.150s      1.835w    356 calls
| | | | DFH: 1st Contraction:     82.333u      7.300s      1.682w    178 calls
| | | | DFH: 2nd Contraction:      6.567u      0.700s      0.137w    178 calls
| | DFH: MO to disk         :     20.817u      2.217s      0.434w    178 calls
| | DFH: Direct Contractions:    885.717u     53.467s     17.778w     89 calls
| | | DFH: Total Workflow   :     20.067u      2.733s      0.460w    178 calls
FISAPT:FSAPT:exch           :   6271.867u    290.600s    133.453w     89 calls
| DFH: initialize()         :   1118.500u     74.100s     31.562w     89 calls
| | DFH: sparsity prep      :    333.067u     23.683s      6.691w     89 calls
| DFH: transform()          :   4861.800u    185.917s     95.687w     89 calls
| | DFH: Total Workflow     :   3260.617u     53.667s     62.168w    890 calls
| | | DFH: Total Transform  :    125.600u     14.467s      2.626w    712 calls
| | | | DFH: 1st Contraction:     84.200u      7.417s      1.720w    356 calls
| | | | DFH: 2nd Contraction:     39.933u      6.883s      0.876w    356 calls
| | DFH: MO to disk         :    188.267u     20.200s      3.914w    356 calls
| | DFH: Direct Contractions:   1161.783u    107.933s     24.818w     89 calls
| | | DFH: Total Workflow   :    109.400u     33.483s      3.000w    178 calls
FISAPT:FSAPT:ind            :   7963.317u    414.433s    170.693w     89 calls
| DFH: initialize()         :   1121.217u     80.000s     31.353w     89 calls
| | DFH: sparsity prep      :    344.750u     24.900s      6.934w     89 calls
| DFH: transform()          :   4883.017u    190.400s     96.231w     89 calls
| | DFH: Total Workflow     :   3280.933u     54.433s     62.571w    890 calls
| | | DFH: Total Transform  :    125.517u     14.417s      2.621w    712 calls
| | | | DFH: 1st Contraction:     84.317u      7.733s      1.729w    356 calls
| | | | DFH: 2nd Contraction:     39.483u      6.517s      0.861w    356 calls
| | DFH: MO to disk         :    180.783u     20.533s      3.776w    356 calls
| | DFH: Direct Contractions:   1169.933u    111.300s     25.064w     89 calls
| | | DFH: Total Workflow   :    108.650u     33.067s      2.990w    178 calls
FISAPT:FSAPT:disp           :  10604.967u    518.933s    221.840w     89 calls
| DFH: initialize()         :   1240.183u     89.167s     31.837w     89 calls
| | DFH: sparsity prep      :    341.783u     24.133s      6.862w     89 calls
| DFH: transform()          :   6801.383u    312.367s    137.171w     89 calls
| | DFH: Total Workflow     :   3660.433u     62.417s     69.833w   3026 calls
| | | DFH: Total Transform  :    426.683u     21.517s      8.419w   2848 calls
| | | | DFH: 1st Contraction:    252.733u      8.850s      4.928w   1068 calls
| | | | DFH: 2nd Contraction:    168.000u     11.983s      3.372w   1780 calls
| | DFH: MO to disk         :    751.800u     82.433s     15.649w   1780 calls
| | DFH: Direct Contractions:   2131.400u    163.083s     46.768w     89 calls
| | | DFH: Total Workflow   :    445.983u     14.200s      9.824w    890 calls

***********************************************************

Host: localhost.localdomain

Timers On : Fri Apr 12 17:02:06 2019
Timers Off: Fri Apr 12 17:02:07 2019

Wall Time:        1.06 seconds


-----------------------------------------------------------

***********************************************************

Host: localhost.localdomain

Timers On : Fri Apr 12 17:02:21 2019
Timers Off: Fri Apr 12 17:03:34 2019

Wall Time:       73.15 seconds

V: Grid                     :     29.850u      2.550s      1.905w     13 calls
DFH: initialize()           :    268.283u     16.750s      6.439w     13 calls
DFH: sparsity prep          :     26.467u      2.033s      0.534w     13 calls
DFH: AO Construction        :     43.017u      0.750s      0.820w     13 calls
DFH: AO-Met. Contraction    :     12.200u      1.283s      0.253w     13 calls
HF: Form H                  :      7.750u      0.517s      0.161w     13 calls
HF: Form S/X                :      2.500u      0.117s      0.049w     13 calls
HF: Guess                   :     82.150u      5.233s      1.809w     13 calls
SAD Guess                   :     81.783u      5.183s      1.801w      2 calls
HF: Form G                  :   1045.700u     11.183s     19.824w    156 calls
RV: Form V                  :    998.267u      6.683s     18.851w    156 calls
Properties                  :    443.864p                         207294 calls
Functional                  :     28.882p                         207294 calls
V_xc                        :    142.087p                         191469 calls
JK: D                       :      0.550u      0.067s      0.012w    156 calls
JK: USO2AO                  :      0.550u      0.050s      0.011w    156 calls
JK: JK                      :     43.167u      4.000s      0.885w    156 calls
DFH: compute_JK()           :     42.783u      3.983s      0.878w    156 calls
DFH: Grabbing AOs           :      0.117u      0.000s      0.003w    156 calls
DFH: compute_J              :     17.650u      0.267s      0.337w    156 calls
DFH: compute_K              :     22.333u      3.467s      0.482w    156 calls
JK: AO2USO                  :      0.183u      0.017s      0.003w    156 calls
HF: Form F                  :      1.300u      0.067s      0.026w    156 calls
HF: DIIS                    :     18.617u      1.733s      0.385w    156 calls
DIISManager::add_entry      :      6.983u      0.650s      0.147w    143 calls
DIISManager::extrapolate    :      7.300u      0.700s      0.152w    130 calls
bMatrix setup               :      3.450u      0.417s      0.072w    130 calls
bMatrix pseudoinverse       :      0.600u      0.017s      0.013w    130 calls
New vector                  :      2.683u      0.233s      0.056w    130 calls
HF: Form C                  :     28.033u      1.750s      0.557w    156 calls
HF: Form D                  :      0.383u      0.017s      0.007w    156 calls
Grad: V T Perturb           :    259.083u     24.167s      9.789w     13 calls
Grad: S                     :      1.000u      0.050s      0.023w     13 calls
Grad: JK                    :    725.000u     43.417s     20.377w     13 calls
JKGrad: Amn                 :    164.700u      8.917s      5.139w     13 calls
JKGrad: Awmn                :      0.000u      0.000s      0.000w     13 calls
JKGrad: AB                  :    169.417u     12.350s      4.475w     13 calls
JKGrad: UV                  :      3.467u      0.267s      0.070w     13 calls
JKGrad: ABx                 :    126.650u      8.417s      3.855w     13 calls
JKGrad: Amnx                :    222.183u     10.400s      6.047w     13 calls
Grad: XC                    :    172.750u      7.117s      3.374w     13 calls
V_xc gradient               :     25.384p                          15825 calls

-----------------------------------------------------------
V: Grid                     :     29.850u      2.550s      1.905w     13 calls
DFH: initialize()           :    268.283u     16.750s      6.439w     13 calls
| DFH: sparsity prep        :     26.467u      2.033s      0.534w     13 calls
| DFH: AO Construction      :     43.017u      0.750s      0.820w     13 calls
| DFH: AO-Met. Contraction  :     12.200u      1.283s      0.253w     13 calls
HF: Form H                  :      7.750u      0.517s      0.161w     13 calls
HF: Form S/X                :      2.500u      0.117s      0.049w     13 calls
HF: Guess                   :     82.150u      5.233s      1.809w     13 calls
| SAD Guess                 :     81.783u      5.183s      1.801w      2 calls
HF: Form G                  :   1045.700u     11.183s     19.824w    156 calls
| RV: Form V                :    998.267u      6.683s     18.851w    156 calls
| | Properties              :    412.000p                         191469 calls
| | Functional              :     26.630p                         191469 calls
| | V_xc                    :    142.087p                         191469 calls
| JK: D                     :      0.550u      0.067s      0.012w    156 calls
| JK: USO2AO                :      0.550u      0.050s      0.011w    156 calls
| JK: JK                    :     43.167u      4.000s      0.885w    156 calls
| | DFH: compute_JK()       :     42.783u      3.983s      0.878w    156 calls
| | | DFH: Grabbing AOs     :      0.117u      0.000s      0.003w    156 calls
| | | DFH: compute_J        :     17.650u      0.267s      0.337w    156 calls
| | | DFH: compute_K        :     22.333u      3.467s      0.482w    156 calls
| JK: AO2USO                :      0.183u      0.017s      0.003w    156 calls
HF: Form F                  :      1.300u      0.067s      0.026w    156 calls
HF: DIIS                    :     18.617u      1.733s      0.385w    156 calls
| DIISManager::add_entry    :      6.983u      0.650s      0.147w    143 calls
| DIISManager::extrapolate  :      7.300u      0.700s      0.152w    130 calls
| | bMatrix setup           :      3.450u      0.417s      0.072w    130 calls
| | bMatrix pseudoinverse   :      0.600u      0.017s      0.013w    130 calls
| | New vector              :      2.683u      0.233s      0.056w    130 calls
HF: Form C                  :     28.033u      1.750s      0.557w    156 calls
HF: Form D                  :      0.383u      0.017s      0.007w    156 calls
Grad: V T Perturb           :    259.083u     24.167s      9.789w     13 calls
Grad: S                     :      1.000u      0.050s      0.023w     13 calls
Grad: JK                    :    725.000u     43.417s     20.377w     13 calls
| JKGrad: Amn               :    164.700u      8.917s      5.139w     13 calls
| JKGrad: Awmn              :      0.000u      0.000s      0.000w     13 calls
| JKGrad: AB                :    169.417u     12.350s      4.475w     13 calls
| JKGrad: UV                :      3.467u      0.267s      0.070w     13 calls
| JKGrad: ABx               :    126.650u      8.417s      3.855w     13 calls
| JKGrad: Amnx              :    222.183u     10.400s      6.047w     13 calls
Grad: XC                    :    172.750u      7.117s      3.374w     13 calls
| Properties                :     31.864p                          15825 calls
| Functional                :      2.251p                          15825 calls
| V_xc gradient             :     25.384p                          15825 calls

***********************************************************

Host: localhost.localdomain

Timers On : Fri Apr 12 17:06:19 2019
Timers Off: Fri Apr 12 17:07:32 2019

Wall Time:       72.40 seconds

V: Grid                     :     44.167u      2.650s      1.850w     13 calls
DFH: initialize()           :    269.350u     16.167s      6.484w     13 calls
DFH: sparsity prep          :     29.483u      2.250s      0.595w     13 calls
DFH: AO Construction        :     44.483u      0.717s      0.847w     13 calls
DFH: AO-Met. Contraction    :     11.767u      1.217s      0.244w     13 calls
HF: Form H                  :      7.117u      0.567s      0.149w     13 calls
HF: Form S/X                :      2.267u      0.167s      0.046w     13 calls
HF: Guess                   :     80.733u      6.350s      1.810w     13 calls
SAD Guess                   :     80.367u      6.300s      1.801w      2 calls
HF: Form G                  :   1071.133u     10.917s     20.300w    156 calls
RV: Form V                  :   1023.850u      6.000s     19.321w    156 calls
Properties                  :    458.451p                         207294 calls
Functional                  :     28.836p                         207294 calls
V_xc                        :    142.322p                         191469 calls
JK: D                       :      0.617u      0.067s      0.012w    156 calls
JK: USO2AO                  :      0.633u      0.033s      0.011w    156 calls
JK: JK                      :     43.067u      4.450s      0.893w    156 calls
DFH: compute_JK()           :     42.817u      4.417s      0.886w    156 calls
DFH: Grabbing AOs           :      0.117u      0.033s      0.003w    156 calls
DFH: compute_J              :     17.267u      0.217s      0.334w    156 calls
DFH: compute_K              :     22.250u      3.867s      0.492w    156 calls
JK: AO2USO                  :      0.150u      0.050s      0.003w    156 calls
HF: Form F                  :      1.067u      0.050s      0.023w    156 calls
HF: DIIS                    :     17.017u      1.750s      0.350w    156 calls
DIISManager::add_entry      :      6.050u      0.483s      0.125w    143 calls
DIISManager::extrapolate    :      6.833u      0.800s      0.140w    130 calls
bMatrix setup               :      2.933u      0.350s      0.061w    130 calls
bMatrix pseudoinverse       :      0.567u      0.067s      0.012w    130 calls
New vector                  :      2.717u      0.283s      0.055w    130 calls
HF: Form C                  :     27.367u      1.750s      0.549w    156 calls
HF: Form D                  :      0.350u      0.033s      0.007w    156 calls
Grad: V T Perturb           :    254.600u     23.233s      9.539w     13 calls
Grad: S                     :      0.933u      0.100s      0.022w     13 calls
Grad: JK                    :    718.783u     42.983s     20.254w     13 calls
JKGrad: Amn                 :    167.433u      7.717s      5.085w     13 calls
JKGrad: Awmn                :      0.017u      0.000s      0.000w     13 calls
JKGrad: AB                  :    167.117u     12.833s      4.358w     13 calls
JKGrad: UV                  :      3.367u      0.333s      0.069w     13 calls
JKGrad: ABx                 :    123.600u      9.033s      3.865w     13 calls
JKGrad: Amnx                :    221.283u     10.883s      6.151w     13 calls
Grad: XC                    :    158.117u      4.600s      3.053w     13 calls
V_xc gradient               :     25.727p                          15825 calls

-----------------------------------------------------------
V: Grid                     :     44.167u      2.650s      1.850w     13 calls
DFH: initialize()           :    269.350u     16.167s      6.484w     13 calls
| DFH: sparsity prep        :     29.483u      2.250s      0.595w     13 calls
| DFH: AO Construction      :     44.483u      0.717s      0.847w     13 calls
| DFH: AO-Met. Contraction  :     11.767u      1.217s      0.244w     13 calls
HF: Form H                  :      7.117u      0.567s      0.149w     13 calls
HF: Form S/X                :      2.267u      0.167s      0.046w     13 calls
HF: Guess                   :     80.733u      6.350s      1.810w     13 calls
| SAD Guess                 :     80.367u      6.300s      1.801w      2 calls
HF: Form G                  :   1071.133u     10.917s     20.300w    156 calls
| RV: Form V                :   1023.850u      6.000s     19.321w    156 calls
| | Properties              :    425.822p                         191469 calls
| | Functional              :     26.580p                         191469 calls
| | V_xc                    :    142.322p                         191469 calls
| JK: D                     :      0.617u      0.067s      0.012w    156 calls
| JK: USO2AO                :      0.633u      0.033s      0.011w    156 calls
| JK: JK                    :     43.067u      4.450s      0.893w    156 calls
| | DFH: compute_JK()       :     42.817u      4.417s      0.886w    156 calls
| | | DFH: Grabbing AOs     :      0.117u      0.033s      0.003w    156 calls
| | | DFH: compute_J        :     17.267u      0.217s      0.334w    156 calls
| | | DFH: compute_K        :     22.250u      3.867s      0.492w    156 calls
| JK: AO2USO                :      0.150u      0.050s      0.003w    156 calls
HF: Form F                  :      1.067u      0.050s      0.023w    156 calls
HF: DIIS                    :     17.017u      1.750s      0.350w    156 calls
| DIISManager::add_entry    :      6.050u      0.483s      0.125w    143 calls
| DIISManager::extrapolate  :      6.833u      0.800s      0.140w    130 calls
| | bMatrix setup           :      2.933u      0.350s      0.061w    130 calls
| | bMatrix pseudoinverse   :      0.567u      0.067s      0.012w    130 calls
| | New vector              :      2.717u      0.283s      0.055w    130 calls
HF: Form C                  :     27.367u      1.750s      0.549w    156 calls
HF: Form D                  :      0.350u      0.033s      0.007w    156 calls
Grad: V T Perturb           :    254.600u     23.233s      9.539w     13 calls
Grad: S                     :      0.933u      0.100s      0.022w     13 calls
Grad: JK                    :    718.783u     42.983s     20.254w     13 calls
| JKGrad: Amn               :    167.433u      7.717s      5.085w     13 calls
| JKGrad: Awmn              :      0.017u      0.000s      0.000w     13 calls
| JKGrad: AB                :    167.117u     12.833s      4.358w     13 calls
| JKGrad: UV                :      3.367u      0.333s      0.069w     13 calls
| JKGrad: ABx               :    123.600u      9.033s      3.865w     13 calls
| JKGrad: Amnx              :    221.283u     10.883s      6.151w     13 calls
Grad: XC                    :    158.117u      4.600s      3.053w     13 calls
| Properties                :     32.629p                          15825 calls
| Functional                :      2.256p                          15825 calls
| V_xc gradient             :     25.727p                          15825 calls

***********************************************************

Host: localhost.localdomain

Timers On : Tue Apr 30 10:57:24 2019
Timers Off: Tue Apr 30 11:56:22 2019

Wall Time:     3537.99 seconds

V: Grid                     :     35.433u      2.533s      1.794w     13 calls
DFH: initialize()           :  33164.700u   1983.300s    783.412w   1105 calls
DFH: sparsity prep          :   4236.833u    315.000s     85.353w   1105 calls
DFH: AO Construction        :  10209.750u    265.817s    196.888w   1469 calls
DFH: AO-Met. Contraction    :   2737.917u    266.233s     56.347w   1469 calls
DFH: Total Workflow         :  37774.500u    762.733s    726.751w  14378 calls
HF: Form H                  :    119.650u      9.733s      2.495w    195 calls
HF: Form S/X                :     85.433u      5.200s      1.697w    195 calls
HF: Guess                   :   8542.300u    594.750s    194.351w    195 calls
SAD Guess                   :   8511.017u    592.483s    193.724w    184 calls
HF: Form G                  :  24773.633u   2481.300s    511.077w   3052 calls
RV: Form V                  :    952.583u      5.700s     17.972w    156 calls
Properties                  :    415.973p                         207307 calls
Functional                  :     28.247p                         207307 calls
V_xc                        :    142.218p                         191482 calls
JK: D                       :     89.767u      7.500s      1.778w  13276 calls
JK: USO2AO                  :    100.317u      8.800s      2.079w  13276 calls
JK: JK                      :  42983.450u   4012.750s    881.317w  13276 calls
DFH: compute_JK()           :  42953.683u   4009.400s    880.728w  13276 calls
DFH: Grabbing AOs           :  19079.900u   2093.983s    397.059w  16172 calls
DFH: compute_J              :   8754.750u     79.567s    165.784w  16172 calls
DFH: compute_K              :  14513.817u   1785.617s    305.760w  16172 calls
JK: AO2USO                  :     14.067u      1.267s      0.281w  13276 calls
HF: Form F                  :     25.683u      2.367s      0.532w   3052 calls
HF: DIIS                    :    776.367u     63.600s     15.858w   3052 calls
DIISManager::add_entry      :    576.900u     48.533s     11.897w   8287 calls
DIISManager::extrapolate    :   1011.567u     96.283s     20.785w   8092 calls
bMatrix setup               :    501.667u     48.517s     10.333w   8092 calls
bMatrix pseudoinverse       :     39.317u      3.800s      0.813w   8092 calls
New vector                  :    437.067u     40.383s      8.946w   8092 calls
HF: Form C                  :   1360.550u     73.200s     26.902w   3052 calls
HF: Form D                  :      9.067u      0.883s      0.192w   3052 calls
Grad: V T Perturb           :    249.233u     23.350s      9.346w     13 calls
Grad: S                     :      1.000u      0.033s      0.022w     13 calls
Grad: JK                    :    714.850u     40.683s     20.208w     13 calls
JKGrad: Amn                 :    166.850u      7.583s      5.063w     13 calls
JKGrad: Awmn                :      0.000u      0.000s      0.000w     13 calls
JKGrad: AB                  :    165.500u     11.383s      4.317w     13 calls
JKGrad: UV                  :      3.233u      0.317s      0.067w     13 calls
JKGrad: ABx                 :    121.233u      9.133s      3.864w     13 calls
JKGrad: Amnx                :    221.583u      9.533s      6.152w     13 calls
Grad: XC                    :    151.900u      4.950s      2.942w     13 calls
V_xc gradient               :     24.153p                          15825 calls
FISAPT: Setup               :   9691.000u    635.617s    274.178w    182 calls
[...]
V_xc                        :     99.983u      0.533s     61.284w 175443 calls
JK: D                       :      0.000u      0.000s      0.005w    143 calls
JK: USO2AO                  :      0.000u      0.000s      0.003w    143 calls
JK: JK                      :     11.033u      0.050s      6.599w    143 calls
DFH: compute_JK()           :     11.033u      0.050s      6.598w    143 calls
DFH: Grabbing AOs           :      0.000u      0.000s      0.000w    143 calls
DFH: compute_J              :      2.517u      0.000s      1.565w    143 calls
DFH: compute_K              :      8.500u      0.050s      5.020w    143 calls
JK: AO2USO                  :      0.000u      0.000s      0.000w    143 calls
HF: Form F                  :      0.000u      0.000s      0.006w    143 calls
HF: DIIS                    :      0.283u      0.183s      0.371w    143 calls
DIISManager::add_entry      :      0.000u      0.050s      0.116w    130 calls
DIISManager::extrapolate    :      0.150u      0.133s      0.175w    117 calls
bMatrix setup               :      0.083u      0.067s      0.095w    117 calls
bMatrix pseudoinverse       :      0.033u      0.000s      0.006w    117 calls
New vector                  :      0.033u      0.067s      0.072w    117 calls
HF: Form C                  :      0.567u      0.000s      0.286w    143 calls
HF: Form D                  :      0.000u      0.000s      0.004w    143 calls
Grad: V T Perturb           :      1.433u      0.000s      0.848w     13 calls
Grad: S                     :      0.000u      0.000s      0.018w     13 calls
Grad: JK                    :     42.783u      4.317s     28.536w     13 calls
JKGrad: Amn                 :      6.817u      1.800s      5.207w     13 calls
JKGrad: Awmn                :      0.000u      0.000s      0.000w     13 calls
JKGrad: AB                  :      2.567u      0.517s      1.883w     13 calls
JKGrad: UV                  :      0.250u      0.083s      0.219w     13 calls
JKGrad: ABx                 :      1.217u      0.050s      0.771w     13 calls
JKGrad: Amnx                :     31.617u      1.733s     20.009w     13 calls
Grad: XC                    :     34.567u      0.333s     20.962w     13 calls
V_xc gradient               :     16.317u      0.033s     10.268w  15824 calls

-----------------------------------------------------------
V: Grid                     :      2.200u      0.050s      1.355w     13 calls
DFH: initialize()           :     12.017u      1.900s      8.521w     13 calls
| DFH: sparsity prep        :      0.283u      0.000s      0.224w     13 calls
| DFH: AO Construction      :      5.017u      0.550s      3.380w     13 calls
| DFH: AO-Met. Contraction  :      4.217u      1.067s      3.145w     13 calls
HF: Form H                  :      0.033u      0.000s      0.241w     13 calls
HF: Form S/X                :      0.067u      0.000s      0.025w     13 calls
HF: Guess                   :      0.467u      0.000s      0.332w     13 calls
| SAD Guess                 :      0.467u      0.000s      0.327w      2 calls
HF: Form G                  :    319.317u      3.833s    194.921w    143 calls
| RV: Form V                :    308.267u      3.783s    188.294w    143 calls
| | Properties              :    180.867u      0.800s    109.712w 175443 calls
| | Functional              :     26.383u      0.517s     15.573w 175443 calls
| | V_xc                    :     99.983u      0.533s     61.284w 175443 calls
| JK: D                     :      0.000u      0.000s      0.005w    143 calls
| JK: USO2AO                :      0.000u      0.000s      0.003w    143 calls
| JK: JK                    :     11.033u      0.050s      6.599w    143 calls
| | DFH: compute_JK()       :     11.033u      0.050s      6.598w    143 calls
| | | DFH: Grabbing AOs     :      0.000u      0.000s      0.000w    143 calls
| | | DFH: compute_J        :      2.517u      0.000s      1.565w    143 calls
| | | DFH: compute_K        :      8.500u      0.050s      5.020w    143 calls
| JK: AO2USO                :      0.000u      0.000s      0.000w    143 calls
HF: Form F                  :      0.000u      0.000s      0.006w    143 calls
HF: DIIS                    :      0.283u      0.183s      0.371w    143 calls
| DIISManager::add_entry    :      0.000u      0.050s      0.116w    130 calls
| DIISManager::extrapolate  :      0.150u      0.133s      0.175w    117 calls
| | bMatrix setup           :      0.083u      0.067s      0.095w    117 calls
| | bMatrix pseudoinverse   :      0.033u      0.000s      0.006w    117 calls
| | New vector              :      0.033u      0.067s      0.072w    117 calls
HF: Form C                  :      0.567u      0.000s      0.286w    143 calls
HF: Form D                  :      0.000u      0.000s      0.004w    143 calls
Grad: V T Perturb           :      1.433u      0.000s      0.848w     13 calls
Grad: S                     :      0.000u      0.000s      0.018w     13 calls
Grad: JK                    :     42.783u      4.317s     28.536w     13 calls
| JKGrad: Amn               :      6.817u      1.800s      5.207w     13 calls
| JKGrad: Awmn              :      0.000u      0.000s      0.000w     13 calls
| JKGrad: AB                :      2.567u      0.517s      1.883w     13 calls
| JKGrad: UV                :      0.250u      0.083s      0.219w     13 calls
| JKGrad: ABx               :      1.217u      0.050s      0.771w     13 calls
| JKGrad: Amnx              :     31.617u      1.733s     20.009w     13 calls
Grad: XC                    :     34.567u      0.333s     20.962w     13 calls
| Properties                :     14.950u      0.017s      8.909w  15824 calls
| Functional                :      2.533u      0.033s      1.355w  15824 calls
| V_xc gradient             :     16.317u      0.033s     10.268w  15824 calls

***********************************************************

Host: DESKTOP-QL22TIG

Timers On : Fri May 10 15:19:03 2019
Timers Off: Fri May 10 15:23:14 2019

Wall Time:      250.94 seconds

V: Grid                     :      2.267u      0.033s      1.358w     13 calls
DFH: initialize()           :     11.700u      2.067s      8.366w     13 calls
DFH: sparsity prep          :      0.267u      0.000s      0.214w     13 calls
DFH: AO Construction        :      4.900u      0.667s      3.346w     13 calls
DFH: AO-Met. Contraction    :      4.233u      1.183s      3.235w     13 calls
HF: Form H                  :      0.000u      0.083s      0.230w     13 calls
HF: Form S/X                :      0.000u      0.000s      0.027w     13 calls
HF: Guess                   :      0.300u      0.017s      0.234w     13 calls
SAD Guess                   :      0.300u      0.017s      0.229w      2 calls
HF: Form G                  :    294.817u      3.167s    179.089w    143 calls
RV: Form V                  :    284.533u      3.083s    172.896w    143 calls
Properties                  :    179.800u      0.767s    107.972w 191267 calls
Functional                  :     26.717u      0.567s     15.934w 191267 calls
V_xc                        :     93.683u      0.533s     57.560w 175443 calls
JK: D                       :      0.000u      0.000s      0.005w    143 calls
JK: USO2AO                  :      0.000u      0.000s      0.002w    143 calls
JK: JK                      :     10.267u      0.083s      6.167w    143 calls
DFH: compute_JK()           :     10.267u      0.083s      6.165w    143 calls
DFH: Grabbing AOs           :      0.000u      0.000s      0.000w    143 calls
DFH: compute_J              :      2.367u      0.000s      1.477w    143 calls
DFH: compute_K              :      7.900u      0.083s      4.676w    143 calls
JK: AO2USO                  :      0.000u      0.000s      0.000w    143 calls
HF: Form F                  :      0.000u      0.000s      0.005w    143 calls
HF: DIIS                    :      0.217u      0.233s      1.229w    143 calls
DIISManager::add_entry      :      0.033u      0.050s      0.987w    130 calls
DIISManager::extrapolate    :      0.083u      0.183s      0.166w    117 calls
bMatrix setup               :      0.067u      0.133s      0.090w    117 calls
bMatrix pseudoinverse       :      0.017u      0.000s      0.006w    117 calls
New vector                  :      0.000u      0.050s      0.068w    117 calls
HF: Form C                  :      0.450u      0.000s      0.284w    143 calls
HF: Form D                  :      0.033u      0.000s      0.004w    143 calls
Grad: V T Perturb           :      1.367u      0.000s      0.843w     13 calls
Grad: S                     :      0.067u      0.000s      0.018w     13 calls
Grad: JK                    :     42.500u      3.717s     28.135w     13 calls
JKGrad: Amn                 :      6.533u      1.500s      5.021w     13 calls
JKGrad: Awmn                :      0.000u      0.000s      0.000w     13 calls
JKGrad: AB                  :      2.333u      0.500s      1.684w     13 calls
JKGrad: UV                  :      0.217u      0.083s      0.174w     13 calls
JKGrad: ABx                 :      1.100u      0.033s      0.693w     13 calls
JKGrad: Amnx                :     31.983u      1.467s     20.122w     13 calls
Grad: XC                    :     34.000u      0.417s     20.652w     13 calls
V_xc gradient               :     16.567u      0.067s     10.112w  15824 calls

-----------------------------------------------------------
V: Grid                     :      2.267u      0.033s      1.358w     13 calls
DFH: initialize()           :     11.700u      2.067s      8.366w     13 calls
| DFH: sparsity prep        :      0.267u      0.000s      0.214w     13 calls
| DFH: AO Construction      :      4.900u      0.667s      3.346w     13 calls
| DFH: AO-Met. Contraction  :      4.233u      1.183s      3.235w     13 calls
HF: Form H                  :      0.000u      0.083s      0.230w     13 calls
HF: Form S/X                :      0.000u      0.000s      0.027w     13 calls
HF: Guess                   :      0.300u      0.017s      0.234w     13 calls
| SAD Guess                 :      0.300u      0.017s      0.229w      2 calls
HF: Form G                  :    294.817u      3.167s    179.089w    143 calls
| RV: Form V                :    284.533u      3.083s    172.896w    143 calls
| | Properties              :    165.317u      0.700s     99.174w 175443 calls
| | Functional              :     24.317u      0.550s     14.609w 175443 calls
| | V_xc                    :     93.683u      0.533s     57.560w 175443 calls
| JK: D                     :      0.000u      0.000s      0.005w    143 calls
| JK: USO2AO                :      0.000u      0.000s      0.002w    143 calls
| JK: JK                    :     10.267u      0.083s      6.167w    143 calls
| | DFH: compute_JK()       :     10.267u      0.083s      6.165w    143 calls
| | | DFH: Grabbing AOs     :      0.000u      0.000s      0.000w    143 calls
| | | DFH: compute_J        :      2.367u      0.000s      1.477w    143 calls
| | | DFH: compute_K        :      7.900u      0.083s      4.676w    143 calls
| JK: AO2USO                :      0.000u      0.000s      0.000w    143 calls
HF: Form F                  :      0.000u      0.000s      0.005w    143 calls
HF: DIIS                    :      0.217u      0.233s      1.229w    143 calls
| DIISManager::add_entry    :      0.033u      0.050s      0.987w    130 calls
| DIISManager::extrapolate  :      0.083u      0.183s      0.166w    117 calls
| | bMatrix setup           :      0.067u      0.133s      0.090w    117 calls
| | bMatrix pseudoinverse   :      0.017u      0.000s      0.006w    117 calls
| | New vector              :      0.000u      0.050s      0.068w    117 calls
HF: Form C                  :      0.450u      0.000s      0.284w    143 calls
HF: Form D                  :      0.033u      0.000s      0.004w    143 calls
Grad: V T Perturb           :      1.367u      0.000s      0.843w     13 calls
Grad: S                     :      0.067u      0.000s      0.018w     13 calls
Grad: JK                    :     42.500u      3.717s     28.135w     13 calls
| JKGrad: Amn               :      6.533u      1.500s      5.021w     13 calls
| JKGrad: Awmn              :      0.000u      0.000s      0.000w     13 calls
| JKGrad: AB                :      2.333u      0.500s      1.684w     13 calls
| JKGrad: UV                :      0.217u      0.083s      0.174w     13 calls
| JKGrad: ABx               :      1.100u      0.033s      0.693w     13 calls
| JKGrad: Amnx              :     31.983u      1.467s     20.122w     13 calls
Grad: XC                    :     34.000u      0.417s     20.652w     13 calls
| Properties                :     14.483u      0.067s      8.798w  15824 calls
| Functional                :      2.400u      0.017s      1.325w  15824 calls
| V_xc gradient             :     16.567u      0.067s     10.112w  15824 calls

***********************************************************

Host: DESKTOP-QL22TIG

Timers On : Fri May 10 15:25:31 2019
Timers Off: Fri May 10 15:29:31 2019

Wall Time:      240.74 seconds

V: Grid                     :      2.233u      0.000s      1.322w     13 calls
DFH: initialize()           :     11.217u      2.000s      8.044w     13 calls
DFH: sparsity prep          :      0.267u      0.000s      0.187w     13 calls
DFH: AO Construction        :      4.783u      0.733s      3.284w     13 calls
DFH: AO-Met. Contraction    :      4.017u      1.000s      3.057w     13 calls
HF: Form H                  :      0.000u      0.033s      0.215w     13 calls
HF: Form S/X                :      0.033u      0.000s      0.034w     13 calls
HF: Guess                   :      0.417u      0.050s      0.346w     13 calls
SAD Guess                   :      0.400u      0.050s      0.334w      2 calls
HF: Form G                  :    282.783u      3.467s    171.788w    143 calls
RV: Form V                  :    273.633u      3.333s    166.094w    143 calls
Properties                  :    168.050u      0.750s    102.677w 191267 calls
Functional                  :     25.883u      0.467s     15.468w 191267 calls
V_xc                        :     94.233u      0.533s     56.059w 175443 calls
JK: D                       :      0.017u      0.000s      0.004w    143 calls
JK: USO2AO                  :      0.000u      0.000s      0.002w    143 calls
JK: JK                      :      9.100u      0.133s      5.668w    143 calls
DFH: compute_JK()           :      9.100u      0.133s      5.667w    143 calls
DFH: Grabbing AOs           :      0.000u      0.033s      0.000w    143 calls
DFH: compute_J              :      2.200u      0.000s      1.439w    143 calls
DFH: compute_K              :      6.900u      0.100s      4.216w    143 calls
JK: AO2USO                  :      0.000u      0.000s      0.000w    143 calls
HF: Form F                  :      0.033u      0.000s      0.005w    143 calls
HF: DIIS                    :      0.183u      0.283s      0.375w    143 calls
DIISManager::add_entry      :      0.033u      0.067s      0.144w    130 calls
DIISManager::extrapolate    :      0.050u      0.217s      0.158w    117 calls
bMatrix setup               :      0.033u      0.083s      0.086w    117 calls
bMatrix pseudoinverse       :      0.000u      0.000s      0.006w    117 calls
New vector                  :      0.017u      0.133s      0.065w    117 calls
HF: Form C                  :      0.417u      0.000s      0.287w    143 calls
HF: Form D                  :      0.050u      0.000s      0.004w    143 calls
Grad: V T Perturb           :      1.150u      0.000s      0.744w     13 calls
Grad: S                     :      0.067u      0.000s      0.018w     13 calls
Grad: JK                    :     41.117u      3.717s     27.212w     13 calls
JKGrad: Amn                 :      6.467u      1.583s      4.995w     13 calls
JKGrad: Awmn                :      0.000u      0.000s      0.000w     13 calls
JKGrad: AB                  :      2.150u      0.433s      1.598w     13 calls
JKGrad: UV                  :      0.300u      0.000s      0.169w     13 calls
JKGrad: ABx                 :      1.100u      0.000s      0.677w     13 calls
JKGrad: Amnx                :     30.717u      1.517s     19.294w     13 calls
Grad: XC                    :     32.717u      0.333s     19.851w     13 calls
V_xc gradient               :     16.783u      0.083s      9.837w  15824 calls

-----------------------------------------------------------
V: Grid                     :      2.233u      0.000s      1.322w     13 calls
DFH: initialize()           :     11.217u      2.000s      8.044w     13 calls
| DFH: sparsity prep        :      0.267u      0.000s      0.187w     13 calls
| DFH: AO Construction      :      4.783u      0.733s      3.284w     13 calls
| DFH: AO-Met. Contraction  :      4.017u      1.000s      3.057w     13 calls
HF: Form H                  :      0.000u      0.033s      0.215w     13 calls
HF: Form S/X                :      0.033u      0.000s      0.034w     13 calls
HF: Guess                   :      0.417u      0.050s      0.346w     13 calls
| SAD Guess                 :      0.400u      0.050s      0.334w      2 calls
HF: Form G                  :    282.783u      3.467s    171.788w    143 calls
| RV: Form V                :    273.633u      3.333s    166.094w    143 calls
| | Properties              :    154.750u      0.750s     94.347w 175443 calls
| | Functional              :     23.800u      0.400s     14.183w 175443 calls
| | V_xc                    :     94.233u      0.533s     56.059w 175443 calls
| JK: D                     :      0.017u      0.000s      0.004w    143 calls
| JK: USO2AO                :      0.000u      0.000s      0.002w    143 calls
| JK: JK                    :      9.100u      0.133s      5.668w    143 calls
| | DFH: compute_JK()       :      9.100u      0.133s      5.667w    143 calls
| | | DFH: Grabbing AOs     :      0.000u      0.033s      0.000w    143 calls
| | | DFH: compute_J        :      2.200u      0.000s      1.439w    143 calls
| | | DFH: compute_K        :      6.900u      0.100s      4.216w    143 calls
| JK: AO2USO                :      0.000u      0.000s      0.000w    143 calls
HF: Form F                  :      0.033u      0.000s      0.005w    143 calls
HF: DIIS                    :      0.183u      0.283s      0.375w    143 calls
| DIISManager::add_entry    :      0.033u      0.067s      0.144w    130 calls
| DIISManager::extrapolate  :      0.050u      0.217s      0.158w    117 calls
| | bMatrix setup           :      0.033u      0.083s      0.086w    117 calls
| | bMatrix pseudoinverse   :      0.000u      0.000s      0.006w    117 calls
| | New vector              :      0.017u      0.133s      0.065w    117 calls
HF: Form C                  :      0.417u      0.000s      0.287w    143 calls
HF: Form D                  :      0.050u      0.000s      0.004w    143 calls
Grad: V T Perturb           :      1.150u      0.000s      0.744w     13 calls
Grad: S                     :      0.067u      0.000s      0.018w     13 calls
Grad: JK                    :     41.117u      3.717s     27.212w     13 calls
| JKGrad: Amn               :      6.467u      1.583s      4.995w     13 calls
| JKGrad: Awmn              :      0.000u      0.000s      0.000w     13 calls
| JKGrad: AB                :      2.150u      0.433s      1.598w     13 calls
| JKGrad: UV                :      0.300u      0.000s      0.169w     13 calls
| JKGrad: ABx               :      1.100u      0.000s      0.677w     13 calls
| JKGrad: Amnx              :     30.717u      1.517s     19.294w     13 calls
Grad: XC                    :     32.717u      0.333s     19.851w     13 calls
| Properties                :     13.300u      0.000s      8.330w  15824 calls
| Functional                :      2.083u      0.067s      1.285w  15824 calls
| V_xc gradient             :     16.783u      0.083s      9.837w  15824 calls

***********************************************************
