[Molden Format]

[FREQ]
        -372.0051929286
          49.2342131321
          82.2487210876
         116.6096551372
         203.3732312683
         276.6080237713
         323.6911075783
         447.2306610431
         466.9149081862
         522.0732622737
         723.5144428421
         787.6947844121
         880.7068033139
         947.3967281551
        1003.8592728554
        1040.9876640609
        1046.5554387492
        1100.4350629632
        1294.9266716535
        1338.4008606322
        1376.6005648909
        1504.2354593649
        1518.9736322323
        1628.2026660244
        1700.6565366539
        3074.7431651363
        3162.1108016880
        3176.7052785336
        3237.7688412929
        3252.7704079735
        3485.7862790941
        3541.7007904776
        3661.0254069910

[FR-COORD]
C          0.6733090909        1.9147518847       -0.3144572661
H         -0.1637175638        1.2974493761       -2.0813706055
H         -0.0049385329        3.6852813717        0.4539121163
C          2.9202910803        0.9617556847        0.5038121691
H          3.8638546067        1.7818214911        2.1306484539
C         -2.6985784272       -0.5190263933        1.2291187820
H         -1.6212865279       -2.2289508059        1.5489236067
H         -3.3782189310        0.4811872657        2.8998153614
N          4.0716211089       -1.2114894188       -0.4187388067
H          3.3867870558       -2.0534907150       -1.9953881547
H          5.8496100620       -1.6618232686        0.1133405821
O         -4.3985751662       -0.8380619815       -0.8242625825
H         -5.3529107346        0.7619109397       -1.0596555300

[FR-NORM-COORD]
vibration 1
          -0.3990738008       -0.3186864792        0.1781710087
           0.1209448235        0.0709574161       -0.2233304626
          -0.1628098197       -0.0896883921       -0.1094433388
          -0.0695913891       -0.0254209537        0.0480195174
          -0.1327302022       -0.0217721024        0.0749567050
           0.4093481483        0.2775257823       -0.2314272899
           0.1068703202        0.0968331648       -0.0699177885
           0.3973706111        0.1791635217       -0.1511858207
          -0.0159014905        0.0141906852       -0.0099063771
          -0.0033987385        0.0302117787       -0.0255846740
           0.0058583931        0.0555105708       -0.0403346521
           0.0314435978        0.0145875949        0.0494364725
           0.0960806292        0.0428742810       -0.0397567389
vibration 2
          -0.0020071442        0.1356108023        0.1071350644
          -0.0892748653        0.2127998590        0.1212311664
           0.1134182260        0.1508923517        0.1739902690
          -0.0244576086       -0.0087353292        0.0031287466
           0.0895217848       -0.1010562253       -0.0166226223
           0.0079297755        0.1344676933        0.0725115984
           0.0851353644        0.2299888760        0.3205389700
          -0.2217938755        0.2349548047       -0.0806501689
          -0.2106499130       -0.0730357825       -0.0794212326
          -0.3473047297       -0.0062998132       -0.0562325031
          -0.2051582658       -0.1832077283       -0.1897914913
           0.2268096217       -0.1507289833       -0.0674531186
           0.1233595471       -0.2428773446       -0.2747027413
vibration 3
           0.0634372013        0.1636748248       -0.0710326663
           0.0828516932        0.2061635221       -0.0950022539
           0.0807118524        0.1641733884       -0.0575684768
          -0.0203113185        0.0504407586        0.0105854891
          -0.0313015391       -0.0042832695        0.0443888040
           0.1818540802       -0.0919786886       -0.1256225222
           0.3713333425       -0.0322474101       -0.4426317763
           0.3117554415       -0.3240044273        0.0653385017
          -0.1706775189       -0.0810910050        0.1087767871
          -0.1600474418        0.0125442316        0.0501726918
          -0.1321596441       -0.0617777573        0.0099105395
          -0.0392574540       -0.0136276037        0.0498287188
          -0.2074440671       -0.0718445739        0.3386912948
vibration 4
          -0.1251654135       -0.0787420992       -0.0282893703
          -0.2491373569       -0.2790846511        0.1019824644
          -0.1408378133       -0.0387787328       -0.1308098181
          -0.0405252207        0.0734853945       -0.0967994213
           0.0667646476        0.2729788152       -0.2594864621
           0.0295613339       -0.1616048081        0.1217828769
          -0.0056111127       -0.2116746315       -0.0345413760
          -0.0454864602       -0.3294022554        0.1882989971
          -0.0841015114       -0.0277237772        0.0761152859
          -0.1959253720       -0.1915586389        0.2095573162
           0.0353540963        0.1756239642       -0.1419851587
           0.1923852729        0.1722898411       -0.0645511299
           0.2709895944        0.2395266420        0.0732478286
vibration 5
          -0.0163988760        0.0096812993       -0.0202470654
          -0.0224385525        0.0004366749       -0.0136003394
           0.0242233907        0.0416936430       -0.0575951039
          -0.0328763251       -0.0176894491        0.0000017550
          -0.0439335876       -0.0206234185        0.0070448781
           0.0247677869       -0.0222391565        0.0176368748
           0.0217938305       -0.0323439611       -0.0187323197
           0.0118025163       -0.0746649685        0.0450179726
           0.0155051719        0.0655615732       -0.0569371734
          -0.0035915510       -0.1398994170        0.0759099697
          -0.3821195673       -0.5739395068        0.6789234086
           0.0248089666        0.0129666486        0.0067961751
           0.0768985090        0.0427648621       -0.0026654704
vibration 6
           0.0037863511       -0.0162121491        0.1272290209
          -0.0507087434       -0.0228542262        0.1552309677
           0.0894342516        0.0412924310        0.0740374925
           0.1299398498        0.0805839562       -0.0517115724
           0.3433473392        0.2469795450       -0.2594303123
          -0.0153441431       -0.0051888684       -0.0648794139
          -0.0761271906       -0.0420043117       -0.0401640702
           0.0039699908       -0.0012709384       -0.0590501810
           0.0090465622        0.0146192864       -0.0032780336
          -0.4474173298       -0.4537742363        0.4529043818
          -0.0302211093       -0.1542700224       -0.0399405179
          -0.0820260445       -0.0314626266       -0.0210375635
          -0.0657153423       -0.0225701228       -0.0308254710
vibration 7
           0.0214952486        0.0314472307       -0.0214209305
           0.0908163548        0.0677986434       -0.0680091673
          -0.0333946658       -0.0086995877        0.0221985154
          -0.0104571222        0.0080664887        0.0234331839
          -0.0459832923       -0.0391306521        0.0673568141
           0.0345844344       -0.0682139402       -0.0172385356
          -0.1912150653       -0.1845326653        0.1302411286
           0.2146314259        0.2024673376       -0.1065601046
          -0.0328613306        0.0141776812       -0.0023629076
          -0.1132668647       -0.0125551350        0.0468596811
          -0.0027781613        0.0310509272       -0.0885661074
          -0.0409453608       -0.0145809521        0.0435761539
           0.6443896786        0.3197503684       -0.4809781445
vibration 8
          -0.0262185431       -0.0145589529        0.0781514827
          -0.1257039455       -0.1019215095        0.1536313363
           0.1083504836        0.1015049647       -0.0625131875
           0.0825521891        0.0747436883       -0.0740153956
           0.2039945681        0.1649741868       -0.1914722638
          -0.0164856945       -0.0074982498       -0.0092871820
           0.0322265227        0.0149113450       -0.0593868767
          -0.0306242492       -0.0527397935        0.0122895065
          -0.0414538606       -0.0644058250        0.0428356712
           0.4395637996        0.4704708453       -0.4612893271
          -0.1064217369       -0.1266353182        0.2315293323
          -0.0370665382       -0.0178660201        0.0014464724
           0.1683991448        0.0805301184       -0.1795857005
vibration 9
           0.0795475200       -0.1216459144       -0.0434830588
           0.3099342020       -0.4672757631       -0.0375265092
          -0.1493932800       -0.0604999161       -0.4016436565
           0.0811511248        0.0745417055        0.1468245274
           0.1088831127        0.0738881891        0.1227831057
          -0.0097172976       -0.0109817601        0.0066554604
          -0.0662202621       -0.0371418223        0.0572578483
           0.0113660578        0.0616552667       -0.0306977415
          -0.1098619175        0.0660807003       -0.0488590834
          -0.2992471809        0.3585310264       -0.1248720080
          -0.1472747170       -0.2278560907       -0.1866015241
           0.0055824251        0.0080029531       -0.0090811112
          -0.1278941437       -0.0548422767        0.1145749391
















































































































































































































































































































































