[Molden Format]
[Title]
CLPOs

[Atoms] AU
C    1   6         -4.2999558915        -0.2805687445         0.6439196929 
O    2   8         -4.0302049697        -0.1302617354         2.8837090808 
O    3   8         -5.5443688272        -0.2424502376        -1.2420785916 
N    4   7         -0.9836985283        -0.9404734699        -0.6691548021 
H    5   1         -1.1859460055        -0.8704109248        -2.5847685659 
H    6   1         -0.5251720584        -2.7597539061        -0.2158236561 
C    7   6          0.9882889661         0.7772426708         0.2168069999 
H    8   1          0.7103283271         1.0167351811         2.2621187707 
C    9   6          3.5036121064        -0.5680528961        -0.1528897099 
O   10   8          3.6617906651        -2.7958860046        -0.6831979533 
O   11   8          5.5158690323         0.9380271809         0.2070803396 
H   12   1          7.0344424140        -0.0884997619         0.0007436633 
C   13   6          0.7924708054         3.3596777017        -1.0817054715 
H   14   1         -1.0626233794         4.1919354452        -0.7065570134 
H   15   1          2.2460845804         4.6416600692        -0.3709617051 
H   16   1          1.0287803211         3.1831692748        -3.1332273708 
[GTO]
  1 0 
s   6 1.0  
     3047.5249000000         0.0018347000 
      457.3695100000         0.0140373000 
      103.9486900000         0.0688426000 
       29.2101550000         0.2321844000 
        9.2866630000         0.4679413000 
        3.1639270000         0.3623120000 
s   3 1.0  
        7.8682724000        -0.1193324000 
        1.8812885000        -0.1608542000 
        0.5442493000         1.1434564000 
p   3 1.0  
        7.8682724000         0.0689991000 
        1.8812885000         0.3164240000 
        0.5442493000         0.7443083000 
s   1 1.0  
        0.1687144000         1.0000000000 
p   1 1.0  
        0.1687144000         1.0000000000 
d   1 1.0  
        0.8000000000         1.0000000000 
s2   1 1.0  
        0.8000000000         1.0000000000 
s   1 1.0  
        0.0438000000         1.0000000000 
p   1 1.0  
        0.0438000000         1.0000000000 

  2 0 
s   6 1.0  
     5484.6717000000         0.0018311000 
      825.2349500000         0.0139501000 
      188.0469600000         0.0684451000 
       52.9645000000         0.2327143000 
       16.8975700000         0.4701930000 
        5.7996353000         0.3585209000 
s   3 1.0  
       15.5396160000        -0.1107775000 
        3.5999336000        -0.1480263000 
        1.0137618000         1.1307670000 
p   3 1.0  
       15.5396160000         0.0708743000 
        3.5999336000         0.3397528000 
        1.0137618000         0.7271586000 
s   1 1.0  
        0.2700058000         1.0000000000 
p   1 1.0  
        0.2700058000         1.0000000000 
d   1 1.0  
        0.8000000000         1.0000000000 
s2   1 1.0  
        0.8000000000         1.0000000000 
s   1 1.0  
        0.0845000000         1.0000000000 
p   1 1.0  
        0.0845000000         1.0000000000 

  3 0 
s   6 1.0  
     5484.6717000000         0.0018311000 
      825.2349500000         0.0139501000 
      188.0469600000         0.0684451000 
       52.9645000000         0.2327143000 
       16.8975700000         0.4701930000 
        5.7996353000         0.3585209000 
s   3 1.0  
       15.5396160000        -0.1107775000 
        3.5999336000        -0.1480263000 
        1.0137618000         1.1307670000 
p   3 1.0  
       15.5396160000         0.0708743000 
        3.5999336000         0.3397528000 
        1.0137618000         0.7271586000 
s   1 1.0  
        0.2700058000         1.0000000000 
p   1 1.0  
        0.2700058000         1.0000000000 
d   1 1.0  
        0.8000000000         1.0000000000 
s2   1 1.0  
        0.8000000000         1.0000000000 
s   1 1.0  
        0.0845000000         1.0000000000 
p   1 1.0  
        0.0845000000         1.0000000000 

  4 0 
s   6 1.0  
     4173.5110000000         0.0018348000 
      627.4579000000         0.0139950000 
      142.9021000000         0.0685870000 
       40.2343300000         0.2322410000 
       12.8202100000         0.4690700000 
        4.3904370000         0.3604550000 
s   3 1.0  
       11.6263580000        -0.1149610000 
        2.7162800000        -0.1691180000 
        0.7722180000         1.1458520000 
p   3 1.0  
       11.6263580000         0.0675800000 
        2.7162800000         0.3239070000 
        0.7722180000         0.7408950000 
s   1 1.0  
        0.2120313000         1.0000000000 
p   1 1.0  
        0.2120313000         1.0000000000 
d   1 1.0  
        0.8000000000         1.0000000000 
s2   1 1.0  
        0.8000000000         1.0000000000 
s   1 1.0  
        0.0639000000         1.0000000000 
p   1 1.0  
        0.0639000000         1.0000000000 

  5 0 
s   3 1.0  
       18.7311370000         0.0334946000 
        2.8253937000         0.2347269500 
        0.6401217000         0.8137573300 
s   1 1.0  
        0.1612778000         1.0000000000 

  6 0 
s   3 1.0  
       18.7311370000         0.0334946000 
        2.8253937000         0.2347269500 
        0.6401217000         0.8137573300 
s   1 1.0  
        0.1612778000         1.0000000000 

  7 0 
s   6 1.0  
     3047.5249000000         0.0018347000 
      457.3695100000         0.0140373000 
      103.9486900000         0.0688426000 
       29.2101550000         0.2321844000 
        9.2866630000         0.4679413000 
        3.1639270000         0.3623120000 
s   3 1.0  
        7.8682724000        -0.1193324000 
        1.8812885000        -0.1608542000 
        0.5442493000         1.1434564000 
p   3 1.0  
        7.8682724000         0.0689991000 
        1.8812885000         0.3164240000 
        0.5442493000         0.7443083000 
s   1 1.0  
        0.1687144000         1.0000000000 
p   1 1.0  
        0.1687144000         1.0000000000 
d   1 1.0  
        0.8000000000         1.0000000000 
s2   1 1.0  
        0.8000000000         1.0000000000 
s   1 1.0  
        0.0438000000         1.0000000000 
p   1 1.0  
        0.0438000000         1.0000000000 

  8 0 
s   3 1.0  
       18.7311370000         0.0334946000 
        2.8253937000         0.2347269500 
        0.6401217000         0.8137573300 
s   1 1.0  
        0.1612778000         1.0000000000 

  9 0 
s   6 1.0  
     3047.5249000000         0.0018347000 
      457.3695100000         0.0140373000 
      103.9486900000         0.0688426000 
       29.2101550000         0.2321844000 
        9.2866630000         0.4679413000 
        3.1639270000         0.3623120000 
s   3 1.0  
        7.8682724000        -0.1193324000 
        1.8812885000        -0.1608542000 
        0.5442493000         1.1434564000 
p   3 1.0  
        7.8682724000         0.0689991000 
        1.8812885000         0.3164240000 
        0.5442493000         0.7443083000 
s   1 1.0  
        0.1687144000         1.0000000000 
p   1 1.0  
        0.1687144000         1.0000000000 
d   1 1.0  
        0.8000000000         1.0000000000 
s2   1 1.0  
        0.8000000000         1.0000000000 
s   1 1.0  
        0.0438000000         1.0000000000 
p   1 1.0  
        0.0438000000         1.0000000000 

 10 0 
s   6 1.0  
     5484.6717000000         0.0018311000 
      825.2349500000         0.0139501000 
      188.0469600000         0.0684451000 
       52.9645000000         0.2327143000 
       16.8975700000         0.4701930000 
        5.7996353000         0.3585209000 
s   3 1.0  
       15.5396160000        -0.1107775000 
        3.5999336000        -0.1480263000 
        1.0137618000         1.1307670000 
p   3 1.0  
       15.5396160000         0.0708743000 
        3.5999336000         0.3397528000 
        1.0137618000         0.7271586000 
s   1 1.0  
        0.2700058000         1.0000000000 
p   1 1.0  
        0.2700058000         1.0000000000 
d   1 1.0  
        0.8000000000         1.0000000000 
s2   1 1.0  
        0.8000000000         1.0000000000 
s   1 1.0  
        0.0845000000         1.0000000000 
p   1 1.0  
        0.0845000000         1.0000000000 

 11 0 
s   6 1.0  
     5484.6717000000         0.0018311000 
      825.2349500000         0.0139501000 
      188.0469600000         0.0684451000 
       52.9645000000         0.2327143000 
       16.8975700000         0.4701930000 
        5.7996353000         0.3585209000 
s   3 1.0  
       15.5396160000        -0.1107775000 
        3.5999336000        -0.1480263000 
        1.0137618000         1.1307670000 
p   3 1.0  
       15.5396160000         0.0708743000 
        3.5999336000         0.3397528000 
        1.0137618000         0.7271586000 
s   1 1.0  
        0.2700058000         1.0000000000 
p   1 1.0  
        0.2700058000         1.0000000000 
d   1 1.0  
        0.8000000000         1.0000000000 
s2   1 1.0  
        0.8000000000         1.0000000000 
s   1 1.0  
        0.0845000000         1.0000000000 
p   1 1.0  
        0.0845000000         1.0000000000 

 12 0 
s   3 1.0  
       18.7311370000         0.0334946000 
        2.8253937000         0.2347269500 
        0.6401217000         0.8137573300 
s   1 1.0  
        0.1612778000         1.0000000000 

 13 0 
s   6 1.0  
     3047.5249000000         0.0018347000 
      457.3695100000         0.0140373000 
      103.9486900000         0.0688426000 
       29.2101550000         0.2321844000 
        9.2866630000         0.4679413000 
        3.1639270000         0.3623120000 
s   3 1.0  
        7.8682724000        -0.1193324000 
        1.8812885000        -0.1608542000 
        0.5442493000         1.1434564000 
p   3 1.0  
        7.8682724000         0.0689991000 
        1.8812885000         0.3164240000 
        0.5442493000         0.7443083000 
s   1 1.0  
        0.1687144000         1.0000000000 
p   1 1.0  
        0.1687144000         1.0000000000 
d   1 1.0  
        0.8000000000         1.0000000000 
s2   1 1.0  
        0.8000000000         1.0000000000 
s   1 1.0  
        0.0438000000         1.0000000000 
p   1 1.0  
        0.0438000000         1.0000000000 

 14 0 
s   3 1.0  
       18.7311370000         0.0334946000 
        2.8253937000         0.2347269500 
        0.6401217000         0.8137573300 
s   1 1.0  
        0.1612778000         1.0000000000 

 15 0 
s   3 1.0  
       18.7311370000         0.0334946000 
        2.8253937000         0.2347269500 
        0.6401217000         0.8137573300 
s   1 1.0  
        0.1612778000         1.0000000000 

 16 0 
s   3 1.0  
       18.7311370000         0.0334946000 
        2.8253937000         0.2347269500 
        0.6401217000         0.8137573300 
s   1 1.0  
        0.1612778000         1.0000000000 

[5D]
[9G]
[MO]
 Sym=     1a
 Ene=  0.00000000000000E+00
 Spin= Beta
 Occup= 0.005146
  1       0.080143527263
  2       0.870336970062
  3       0.679730325092
  4      -0.212243787767
  5      -0.208058158906
  6      -1.956081263134
  7      -1.927812218962
  8       0.563520506412
  9       1.097557586518
 10       0.645701919725
 11       0.223154222364
 12       0.049313549300
 13      -0.214352121137
 14      -0.070670832859
 15       0.378657128279
 16      -0.779142991456
 17       0.272364759845
 18      -0.048768889745
 19      -0.071617823838
 20       0.019685806835
 21      -0.168446874635
 22       0.144887037867
 23      -0.014912227240
 24       0.211834383161
 25      -0.363319422679
 26       0.337093139960
 27      -0.062533458081
 28       0.120546274440
 29      -0.174314456809
 30      -0.038019085724
 31      -0.024164057044
 32      -0.001077856535
 33       0.008586407039
 34      -0.036939874361
 35       0.333303807440
 36      -0.086191402784
 37      -0.041783944921
 38      -0.106169671957
 39       0.001765830948
 40      -0.117367498069
 41      -0.017257303545
 42      -0.028478880914
 43      -0.175507398904
 44       0.157060763092
 45       0.200570098089
 46      -0.084491609791
 47      -0.121365319110
 48       0.011535776541
 49      -0.150141064677
 50      -0.006286951798
 51      -0.100607762128
 52       0.014774328062
 53      -0.081516858904
 54       0.428594293781
 55      -0.014045155999
 56      -0.022491297420
 57       0.107703724469
 58      -0.067341553070
 59      -0.069125372412
 60      -0.101940569928
 61      -0.008664296083
 62       0.035177892736
 63       1.165299192827
 64      -0.818341814723
 65       0.146072727429
 66       0.260096042538
 67      -0.015151686863
 68      -0.038870915502
 69       0.015752369572
 70       0.045652550024
 71      -0.021565645993
 72      -0.166101821303
 73       0.221005423693
 74      -0.342620785839
 75       0.008182430573
 76       0.034347265434
 77      -0.018297270084
 78      -0.168584580057
 79      -0.000528274098
 80      -0.072642863262
 81      -0.007197129250
 82      -0.035450060952
 83       0.017190473166
 84      -0.017210312021
 85       0.001681358773
 86       0.047924857651
 87      -0.089259342405
 88       0.127434838081
 89      -0.128462947892
 90       0.003283736226
 91       0.004521069471
 92       0.002402638766
 93      -0.015007513220
 94       0.001568345084
 95      -0.000254377200
 96       0.203148505581
 97      -0.385155278623
 98      -0.065702352772
 99      -0.025006665468
100       0.017834591887
101      -0.068616842692
102      -0.006012542729
103      -0.045410701816
104       0.006462838254
105       0.008580771254
106       0.007456644959
107       0.132653888847
108      -0.233381314975
109      -0.119952037571
110      -0.017003625526
111      -0.001562176739
112      -0.003916403344
113       0.003014769520
114       0.001290759505
115      -0.005185473222
116       0.003225869250
117       0.245772771507
118       0.031532452784
119       0.095126493231
120       0.012946132650
121       0.000712844417
122      -0.008281778925
123       0.006731228310
124      -0.000302329387
125       0.001795768711
126      -0.070427229231
127       0.007562023617
128      -0.009041506115
129      -0.014727886856
130      -0.009001839039
131       0.003125033272
132       0.001330713410
133       0.002909911025
134       0.002766170334
135       0.006266419550
136       0.054866220045
137      -0.022307820883
138       0.004472837100
139      -0.014349274232
140      -0.003644632884
141      -0.006534518825
142      -0.003451019532
143       0.001831194664
144       0.001217348691
145       0.113051803705
146      -0.035471214174
147      -0.037092007517
148      -0.006818008890
149      -0.000492943116
150       0.000487176477
151       0.001272374051
152      -0.001358886681
153       0.003908638218
154      -0.011192288642
155       0.039848692068
156      -0.051280466979
157       0.016654966358
158       0.009544494105
159       0.000274417968
160       0.039097037890
161       0.008154007960
162       0.033618156219
163       0.001455980692
164       0.011945284039
165      -0.007515432911
166      -0.293603889297
167       0.077150223927
168       0.072478438582
169      -0.012047395689
170       0.003409866388
171      -0.000235797789
172       0.001904325121
173       0.000261709323
174      -0.001365785962
175       0.005942410907
176      -0.027378234769
177      -0.003930557960
178       0.008051211026
179       0.013095880934
180       0.014293780437
181       0.049081261585
182       0.004879062379
183      -0.006835913330
184       0.017084153858
185      -0.008935458359
 Sym=     1a
 Ene=  1.00000000000000E+00
 Spin= Beta
 Occup= 0.000561
  1       0.318000384078
  2      -0.991922277000
  3       0.149318201442
  4      -0.039064531841
  5      -0.066818110219
  6      -8.080327122599
  7       0.311038704633
  8      -0.045744677632
  9      -0.042639832575
 10      -0.768671829140
 11      -0.367109620953
 12      -0.054580396410
 13      -0.252677848325
 14       0.035998175146
 15       2.261907826416
 16      -4.550471192668
 17      -0.116216383790
 18      -0.276397049349
 19      -0.183534636415
 20      -0.061803393063
 21      -0.080790024723
 22       0.028769335442
 23      -0.013060886734
 24      -0.067546070586
 25       1.964786957863
 26      -0.209742056827
 27      -0.084124679035
 28      -1.349184627765
 29       0.258702838935
 30       0.036058034615
 31       0.036806793847
 32      -0.010635279385
 33       0.006792726172
 34      -0.189448542367
 35       2.821908396819
 36      -0.516096479697
 37      -0.020106673684
 38      -0.670259953750
 39      -0.069334539245
 40      -0.166091164692
 41       0.071737716545
 42      -0.005030355669
 43       0.015020697499
 44       2.272106918626
 45       0.726102777197
 46      -0.029576095683
 47       1.157913769272
 48       0.092022552912
 49       0.222318071352
 50      -0.012358720800
 51       0.075583892124
 52      -0.004127712521
 53      -0.244857690088
 54       2.402562852300
 55       0.015958503200
 56       0.106234146601
 57       0.705604189253
 58      -0.051146318739
 59      -0.178826596881
 60       0.014975499298
 61      -0.011299478772
 62       0.007064158697
 63       1.209135818210
 64      -0.429357592231
 65       0.122909124387
 66       0.157432697854
 67      -0.029599453415
 68      -0.052343906234
 69       0.022595388248
 70       0.041180663359
 71      -0.018940647146
 72      -0.207182497230
 73      -0.061061580702
 74      -0.922130597937
 75      -0.200181979557
 76       0.022518399056
 77       0.004974767839
 78      -0.460817724426
 79      -0.021580086024
 80      -0.244941039218
 81       0.003620017322
 82      -0.053007028799
 83       0.019453920993
 84      -0.012558250320
 85       0.032583901809
 86      -0.061328148572
 87       0.150761792821
 88       0.308720733855
 89      -0.160809612004
 90      -0.000714200007
 91       0.004985829972
 92      -0.009567848184
 93      -0.018579135747
 94      -0.005414497678
 95       0.027585890878
 96       1.012482591548
 97      -2.077431844723
 98      -0.377163079929
 99       0.018429289787
100       0.074014162620
101      -0.225475545579
102      -0.008282434188
103      -0.006184169734
104       0.017353841199
105       0.006890166627
106       0.006595023077
107       0.084987024821
108      -0.294614533783
109      -0.291725382562
110      -0.017959488634
111       0.004549866738
112      -0.010178443534
113       0.004705396074
114      -0.001442667240
115      -0.007534394918
116      -0.049835637569
117       1.485611158261
118       0.019772754178
119       0.474413485845
120       0.053146596789
121       0.004745784616
122       0.006708645005
123       0.006976962185
124       0.001911744464
125       0.004387484238
126      -0.195915918277
127       0.016360882485
128      -0.037211925291
129      -0.021963631689
130      -0.013167207327
131       0.004689358685
132      -0.000093000006
133       0.004333069460
134       0.006289760269
135       0.028816102544
136       0.138259354021
137      -0.032659506679
138       0.005636426585
139      -0.041253589207
140      -0.002260387043
141      -0.008105467891
142      -0.006661949669
143       0.006632103434
144       0.003103273234
145       0.137121137201
146      -0.040236864852
147      -0.080172312451
148      -0.029099759155
149      -0.001570593084
150       0.002991579254
151       0.002637515383
152      -0.000344357802
153       0.008428038099
154       0.001753979026
155       0.122153686851
156      -0.194816401510
157       0.106742741058
158       0.031660247910
159      -0.020571745630
160       0.107414186247
161       0.014450693303
162       0.075650292825
163      -0.014419047725
164       0.028062767915
165      -0.000273093330
166      -0.520835513682
167       0.101391268585
168       0.056458072118
169      -0.086461727898
170       0.009017393053
171      -0.004925970569
172       0.006034443029
173      -0.002870817499
174      -0.001178179001
175       0.014020039941
176       0.074845476524
177      -0.035087815157
178       0.013853556258
179       0.075497799089
180       0.012272381359
181       0.074913418496
182       0.013557811579
183       0.021494341652
184       0.021835254108
185      -0.022926256017
 Sym=     1a
 Ene=  2.00000000000000E+00
 Spin= Beta
 Occup= 0.000127
  1       0.010443156958
  2      -0.015723624168
  3       0.145708266145
  4      -0.022091415477
  5       0.252386856290
  6      -0.209439510829
  7       0.223090712459
  8       0.185172694513
  9       1.759100944356
 10       0.031838540739
 11      -0.014465013089
 12       0.030551905710
 13      -0.032730536039
 14       0.031548540508
 15       0.054295428951
 16      -1.711088482676
 17       0.787908323411
 18       0.411546830528
 19       5.984184653684
 20      -0.029044336378
 21       0.024233263942
 22       0.037300951395
 23       0.000883545101
 24      -0.065360271165
 25      -0.238518997036
 26      -0.142499096661
 27       0.008533379046
 28       0.870607746239
 29      -0.065959193522
 30      -0.017531567922
 31       0.000897562154
 32       0.018095337479
 33       0.002948512835
 34      -0.268245585994
 35      -3.428422339903
 36       0.718088126427
 37       0.077219493776
 38      -1.246933737942
 39       0.055051013033
 40       0.020709505979
 41      -0.065797162195
 42      -0.000315213145
 43      -0.058893525676
 44      -0.187563893993
 45       0.612575882652
 46       0.004564781706
 47       0.680944230249
 48       0.009223593603
 49       0.080500833009
 50      -0.010462024094
 51       0.011355401572
 52       0.008970852058
 53       0.453615777380
 54       3.886801126428
 55      -0.807045636228
 56      -0.093622746274
 57      -1.167956498207
 58      -0.024633398747
 59      -0.069904134372
 60       0.022117181065
 61      -0.019096224798
 62       0.045375960278
 63       0.726177060973
 64      -0.037570141745
 65       0.290024584256
 66      -0.246303271929
 67      -0.014680703010
 68       0.006410849573
 69       0.001312318597
 70       0.020805232685
 71       0.007071536653
 72      -0.137437008174
 73       1.700406981278
 74      -2.512427557981
 75      -0.178225095051
 76      -1.520324890865
 77       0.044457985769
 78      -0.931146366842
 79       0.036061365799
 80       0.071712693495
 81       0.007755573071
 82       0.038152507749
 83      -0.024338408678
 84       0.052188478017
 85      -0.017208640511
 86      -0.304755776151
 87       0.506864461648
 88      -0.448316929088
 89       0.327168405187
 90       0.001612327210
 91      -0.028903464594
 92       0.017163543153
 93       0.018453941376
 94      -0.004519863864
 95       0.015274024220
 96       1.919525763937
 97       2.131369595046
 98      -0.506676157823
 99      -1.504406488811
100      -0.078485537576
101       0.472317060695
102       0.000862047680
103       0.002818967611
104       0.007706134212
105       0.008186872650
106      -0.026259284910
107      -0.136186645278
108      -0.079858422811
109      -0.442952553175
110      -0.086875116119
111       0.010691433702
112       0.005362628138
113      -0.009307541707
114      -0.021274824381
115      -0.015674364490
116      -0.015486253545
117      -2.298115886609
118       0.463651598421
119      -0.042997508528
120       0.391218982469
121       0.015506945881
122       0.059758130875
123       0.001808524607
124       0.000407560890
125      -0.002614680021
126      -0.451881405202
127       0.013430761477
128      -0.059326703793
129      -0.018674709068
130      -0.002599199276
131      -0.012769940623
132      -0.000932020493
133       0.006667031896
134       0.006244632620
135       0.096141430403
136       0.625837634727
137      -0.209192789586
138       0.008241208510
139       0.109364197550
140      -0.012448865972
141      -0.061803974157
142       0.008111319404
143       0.003882495830
144      -0.005301249116
145       0.391535170160
146      -0.140295412618
147      -0.053180178690
148       0.005474712719
149      -0.002425590514
150       0.000677480487
151       0.004729469939
152       0.015319883125
153       0.013517296522
154      -0.065971252718
155      -0.440055179099
156      -0.011388614625
157       0.117739489733
158      -0.022835669187
159      -0.015478603700
160       0.143061960615
161      -0.013665797258
162      -0.079228668122
163       0.010351252438
164       0.000951631183
165       0.027807773962
166       0.730275013949
167      -0.091268413771
168      -0.414005228742
169      -0.027916001462
170      -0.000463506821
171      -0.014664801080
172      -0.019962214249
173      -0.021855677219
174      -0.000341747502
175      -0.020321504258
176       0.388335672813
177      -0.833097058433
178      -0.056744270261
179      -0.064225072020
180      -0.037639716076
181       0.056027602271
182      -0.018403026483
183       0.145242537783
184       0.025887689508
185      -0.457283894658
 Sym=     1a
 Ene=  3.00000000000000E+00
 Spin= Beta
 Occup= 1.997214
  1      -0.060342957014
  2       0.302615900989
  3      -0.124014016553
  4      -0.001642652803
  5      -0.261127700338
  6       0.135226700430
  7       0.029201700349
  8       0.005987875909
  9       0.093578060412
 10       0.022685178821
 11       0.056168492437
 12      -0.002016166877
 13       0.006121461390
 14       0.001083731099
 15      -0.004296738028
 16       0.009999295464
 17       0.010000795902
 18      -0.001262871961
 19      -0.006100927099
 20       0.012027104247
 21      -0.016616139634
 22       0.002021356360
 23       0.002282360925
 24       0.035803763211
 25      -0.143384785972
 26       0.002385184558
 27       0.003629039013
 28       0.062211293204
 29      -0.006051584734
 30       0.008418915554
 31      -0.001334737444
 32       0.001312756087
 33       0.000612906734
 34       0.020971618803
 35      -0.030307220821
 36      -0.007500065431
 37       0.001345282640
 38       0.004302995477
 39      -0.053162720645
 40       0.276632479339
 41       0.244599128686
 42      -0.013567988134
 43       0.288442225084
 44       0.213085102929
 45       0.116928700493
 46      -0.009185071495
 47       0.116741644019
 48       0.005876900700
 49       0.031698321672
 50      -0.002101517989
 51       0.005858886028
 52      -0.001003258157
 53      -0.006586224754
 54      -0.055244125777
 55      -0.005180736552
 56      -0.000108687887
 57       0.012353143369
 58       0.002921490436
 59      -0.019921677585
 60       0.051014007770
 61      -0.010145645397
 62      -0.004671851414
 63       0.020654408170
 64      -0.021338682420
 65       0.008717487382
 66      -0.046725018228
 67       0.001053212019
 68      -0.000218714105
 69       0.000147136067
 70       0.003623902565
 71      -0.001997967685
 72      -0.010223472576
 73       0.016039590047
 74      -0.041417429938
 75       0.013838470372
 76      -0.009005342686
 77      -0.026058848623
 78      -0.030987142322
 79       0.002768415912
 80      -0.006582304719
 81      -0.000014550058
 82       0.002266762632
 83      -0.005362664675
 84       0.003611465139
 85       0.002992256466
 86       0.020464156555
 87       0.038352736267
 88      -0.040783740563
 89       0.007659769356
 90      -0.000843851488
 91      -0.000384987084
 92       0.001223755121
 93      -0.000185911775
 94       0.000282297834
 95       0.001697757569
 96       0.004571608555
 97      -0.009026276431
 98      -0.005065208640
 99      -0.006277615132
100      -0.002515856272
101      -0.001684650927
102      -0.000396231383
103      -0.000033898476
104       0.005539915161
105       0.001192250815
106       0.000681936934
107      -0.028999693773
108       0.005961011041
109      -0.024380963662
110      -0.010531652940
111       0.000345761511
112       0.000375211188
113      -0.000143714203
114      -0.000568756315
115      -0.000434563184
116      -0.006025789654
117       0.007824469422
118       0.003489693520
119       0.005195005283
120       0.002295145743
121       0.000316810069
122      -0.002409222355
123       0.001875875010
124      -0.000281127337
125       0.000052590812
126      -0.006756508725
127      -0.002948743802
128      -0.001488777776
129       0.001198118794
130      -0.000587674058
131       0.000045905603
132       0.000512691251
133       0.000189086786
134      -0.000345017583
135       0.000561217552
136       0.009880494056
137      -0.005420443638
138       0.000360922731
139       0.000487983379
140      -0.000407617813
141       0.000277118591
142      -0.000366202384
143      -0.000096041102
144      -0.000494790807
145       0.010821775192
146      -0.005400698917
147      -0.000765862919
148       0.000999442976
149      -0.000053100041
150      -0.000106396324
151      -0.000314787207
152       0.000493827061
153       0.000484859253
154      -0.001083482123
155      -0.001746000754
156      -0.003196968886
157       0.001857929505
158       0.000653689557
159       0.000089502944
160       0.003377722156
161      -0.000115009535
162       0.001760586132
163      -0.002481216646
164      -0.002293530054
165      -0.000296077756
166       0.024368497422
167       0.005227289997
168       0.001208920349
169       0.012167275883
170       0.000132221577
171      -0.000017175332
172      -0.000429846026
173      -0.000048798880
174       0.000490758701
175       0.000893931296
176      -0.000065073751
177      -0.000990917945
178       0.001399176383
179       0.000811969032
180      -0.001070689925
181      -0.010559304168
182      -0.002176495555
183      -0.007485366665
184       0.001759457217
185      -0.003850583265
 Sym=     1a
 Ene=  4.00000000000000E+00
 Spin= Beta
 Occup= 0.066967
  1       0.094002201322
  2      -0.696320813854
  3       0.386766626794
  4       0.000683345624
  5       0.733475048190
  6      -0.321279768142
  7      -0.077766399195
  8      -0.019049130375
  9      -0.321078869417
 10      -0.042288282295
 11      -0.089512555151
 12       0.003162780755
 13      -0.005728288821
 14      -0.003003825945
 15      -0.160092144443
 16       0.111140665615