[Molden Format]
[Title]
 created by molden2molden from mp2.molden

[Atoms] AU
C    1   6         -4.2999558915        -0.2805687445         0.6439196929 
O    2   8         -4.0302049697        -0.1302617354         2.8837090808 
O    3   8         -5.5443688272        -0.2424502376        -1.2420785916 
N    4   7         -0.9836985283        -0.9404734699        -0.6691548021 
H    5   1         -1.1859460055        -0.8704109248        -2.5847685659 
H    6   1         -0.5251720584        -2.7597539061        -0.2158236561 
C    7   6          0.9882889661         0.7772426708         0.2168069999 
H    8   1          0.7103283271         1.0167351811         2.2621187707 
C    9   6          3.5036121064        -0.5680528961        -0.1528897099 
O   10   8          3.6617906651        -2.7958860046        -0.6831979533 
O   11   8          5.5158690323         0.9380271809         0.2070803396 
H   12   1          7.0344424140        -0.0884997619         0.0007436633 
C   13   6          0.7924708054         3.3596777017        -1.0817054715 
H   14   1         -1.0626233794         4.1919354452        -0.7065570134 
H   15   1          2.2460845804         4.6416600692        -0.3709617051 
H   16   1          1.0287803211         3.1831692748        -3.1332273708 
[GTO]
  1 0 
s   6 1.0  
     3047.5249000000         0.0018347000 
      457.3695100000         0.0140373000 
      103.9486900000         0.0688426000 
       29.2101550000         0.2321844000 
        9.2866630000         0.4679413000 
        3.1639270000         0.3623120000 
s   3 1.0  
        7.8682724000        -0.1193324000 
        1.8812885000        -0.1608542000 
        0.5442493000         1.1434564000 
p   3 1.0  
        7.8682724000         0.0689991000 
        1.8812885000         0.3164240000 
        0.5442493000         0.7443083000 
s   1 1.0  
        0.1687144000         1.0000000000 
p   1 1.0  
        0.1687144000         1.0000000000 
d   1 1.0  
        0.8000000000         1.0000000000 
s2   1 1.0  
        0.8000000000         1.0000000000 
s   1 1.0  
        0.0438000000         1.0000000000 
p   1 1.0  
        0.0438000000         1.0000000000 

  2 0 
s   6 1.0  
     5484.6717000000         0.0018311000 
      825.2349500000         0.0139501000 
      188.0469600000         0.0684451000 
       52.9645000000         0.2327143000 
       16.8975700000         0.4701930000 
        5.7996353000         0.3585209000 
s   3 1.0  
       15.5396160000        -0.1107775000 
        3.5999336000        -0.1480263000 
        1.0137618000         1.1307670000 
p   3 1.0  
       15.5396160000         0.0708743000 
        3.5999336000         0.3397528000 
        1.0137618000         0.7271586000 
s   1 1.0  
        0.2700058000         1.0000000000 
p   1 1.0  
        0.2700058000         1.0000000000 
d   1 1.0  
        0.8000000000         1.0000000000 
s2   1 1.0  
        0.8000000000         1.0000000000 
s   1 1.0  
        0.0845000000         1.0000000000 
p   1 1.0  
        0.0845000000         1.0000000000 

  3 0 
s   6 1.0  
     5484.6717000000         0.0018311000 
      825.2349500000         0.0139501000 
      188.0469600000         0.0684451000 
       52.9645000000         0.2327143000 
       16.8975700000         0.4701930000 
        5.7996353000         0.3585209000 
s   3 1.0  
       15.5396160000        -0.1107775000 
        3.5999336000        -0.1480263000 
        1.0137618000         1.1307670000 
p   3 1.0  
       15.5396160000         0.0708743000 
        3.5999336000         0.3397528000 
        1.0137618000         0.7271586000 
s   1 1.0  
        0.2700058000         1.0000000000 
p   1 1.0  
        0.2700058000         1.0000000000 
d   1 1.0  
        0.8000000000         1.0000000000 
s2   1 1.0  
        0.8000000000         1.0000000000 
s   1 1.0  
        0.0845000000         1.0000000000 
p   1 1.0  
        0.0845000000         1.0000000000 

  4 0 
s   6 1.0  
     4173.5110000000         0.0018348000 
      627.4579000000         0.0139950000 
      142.9021000000         0.0685870000 
       40.2343300000         0.2322410000 
       12.8202100000         0.4690700000 
        4.3904370000         0.3604550000 
s   3 1.0  
       11.6263580000        -0.1149610000 
        2.7162800000        -0.1691180000 
        0.7722180000         1.1458520000 
p   3 1.0  
       11.6263580000         0.0675800000 
        2.7162800000         0.3239070000 
        0.7722180000         0.7408950000 
s   1 1.0  
        0.2120313000         1.0000000000 
p   1 1.0  
        0.2120313000         1.0000000000 
d   1 1.0  
        0.8000000000         1.0000000000 
s2   1 1.0  
        0.8000000000         1.0000000000 
s   1 1.0  
        0.0639000000         1.0000000000 
p   1 1.0  
        0.0639000000         1.0000000000 

  5 0 
s   3 1.0  
       18.7311370000         0.0334946000 
        2.8253937000         0.2347269500 
        0.6401217000         0.8137573300 
s   1 1.0  
        0.1612778000         1.0000000000 

  6 0 
s   3 1.0  
       18.7311370000         0.0334946000 
        2.8253937000         0.2347269500 
        0.6401217000         0.8137573300 
s   1 1.0  
        0.1612778000         1.0000000000 

  7 0 
s   6 1.0  
     3047.5249000000         0.0018347000 
      457.3695100000         0.0140373000 
      103.9486900000         0.0688426000 
       29.2101550000         0.2321844000 
        9.2866630000         0.4679413000 
        3.1639270000         0.3623120000 
s   3 1.0  
        7.8682724000        -0.1193324000 
        1.8812885000        -0.1608542000 
        0.5442493000         1.1434564000 
p   3 1.0  
        7.8682724000         0.0689991000 
        1.8812885000         0.3164240000 
        0.5442493000         0.7443083000 
s   1 1.0  
        0.1687144000         1.0000000000 
p   1 1.0  
        0.1687144000         1.0000000000 
d   1 1.0  
        0.8000000000         1.0000000000 
s2   1 1.0  
        0.8000000000         1.0000000000 
s   1 1.0  
        0.0438000000         1.0000000000 
p   1 1.0  
        0.0438000000         1.0000000000 

  8 0 
s   3 1.0  
       18.7311370000         0.0334946000 
        2.8253937000         0.2347269500 
        0.6401217000         0.8137573300 
s   1 1.0  
        0.1612778000         1.0000000000 

  9 0 
s   6 1.0  
     3047.5249000000         0.0018347000 
      457.3695100000         0.0140373000 
      103.9486900000         0.0688426000 
       29.2101550000         0.2321844000 
        9.2866630000         0.4679413000 
        3.1639270000         0.3623120000 
s   3 1.0  
        7.8682724000        -0.1193324000 
        1.8812885000        -0.1608542000 
        0.5442493000         1.1434564000 
p   3 1.0  
        7.8682724000         0.0689991000 
        1.8812885000         0.3164240000 
        0.5442493000         0.7443083000 
s   1 1.0  
        0.1687144000         1.0000000000 
p   1 1.0  
        0.1687144000         1.0000000000 
d   1 1.0  
        0.8000000000         1.0000000000 
s2   1 1.0  
        0.8000000000         1.0000000000 
s   1 1.0  
        0.0438000000         1.0000000000 
p   1 1.0  
        0.0438000000         1.0000000000 

 10 0 
s   6 1.0  
     5484.6717000000         0.0018311000 
      825.2349500000         0.0139501000 
      188.0469600000         0.0684451000 
       52.9645000000         0.2327143000 
       16.8975700000         0.4701930000 
        5.7996353000         0.3585209000 
s   3 1.0  
       15.5396160000        -0.1107775000 
        3.5999336000        -0.1480263000 
        1.0137618000         1.1307670000 
p   3 1.0  
       15.5396160000         0.0708743000 
        3.5999336000         0.3397528000 
        1.0137618000         0.7271586000 
s   1 1.0  
        0.2700058000         1.0000000000 
p   1 1.0  
        0.2700058000         1.0000000000 
d   1 1.0  
        0.8000000000         1.0000000000 
s2   1 1.0  
        0.8000000000         1.0000000000 
s   1 1.0  
        0.0845000000         1.0000000000 
p   1 1.0  
        0.0845000000         1.0000000000 

 11 0 
s   6 1.0  
     5484.6717000000         0.0018311000 
      825.2349500000         0.0139501000 
      188.0469600000         0.0684451000 
       52.9645000000         0.2327143000 
       16.8975700000         0.4701930000 
        5.7996353000         0.3585209000 
s   3 1.0  
       15.5396160000        -0.1107775000 
        3.5999336000        -0.1480263000 
        1.0137618000         1.1307670000 
p   3 1.0  
       15.5396160000         0.0708743000 
        3.5999336000         0.3397528000 
        1.0137618000         0.7271586000 
s   1 1.0  
        0.2700058000         1.0000000000 
p   1 1.0  
        0.2700058000         1.0000000000 
d   1 1.0  
        0.8000000000         1.0000000000 
s2   1 1.0  
        0.8000000000         1.0000000000 
s   1 1.0  
        0.0845000000         1.0000000000 
p   1 1.0  
        0.0845000000         1.0000000000 

 12 0 
s   3 1.0  
       18.7311370000         0.0334946000 
        2.8253937000         0.2347269500 
        0.6401217000         0.8137573300 
s   1 1.0  
        0.1612778000         1.0000000000 

 13 0 
s   6 1.0  
     3047.5249000000         0.0018347000 
      457.3695100000         0.0140373000 
      103.9486900000         0.0688426000 
       29.2101550000         0.2321844000 
        9.2866630000         0.4679413000 
        3.1639270000         0.3623120000 
s   3 1.0  
        7.8682724000        -0.1193324000 
        1.8812885000        -0.1608542000 
        0.5442493000         1.1434564000 
p   3 1.0  
        7.8682724000         0.0689991000 
        1.8812885000         0.3164240000 
        0.5442493000         0.7443083000 
s   1 1.0  
        0.1687144000         1.0000000000 
p   1 1.0  
        0.1687144000         1.0000000000 
d   1 1.0  
        0.8000000000         1.0000000000 
s2   1 1.0  
        0.8000000000         1.0000000000 
s   1 1.0  
        0.0438000000         1.0000000000 
p   1 1.0  
        0.0438000000         1.0000000000 

 14 0 
s   3 1.0  
       18.7311370000         0.0334946000 
        2.8253937000         0.2347269500 
        0.6401217000         0.8137573300 
s   1 1.0  
        0.1612778000         1.0000000000 

 15 0 
s   3 1.0  
       18.7311370000         0.0334946000 
        2.8253937000         0.2347269500 
        0.6401217000         0.8137573300 
s   1 1.0  
        0.1612778000         1.0000000000 

 16 0 
s   3 1.0  
       18.7311370000         0.0334946000 
        2.8253937000         0.2347269500 
        0.6401217000         0.8137573300 
s   1 1.0  
        0.1612778000         1.0000000000 

[5D]
[9G]
[MO]
 Sym=     1a
 Ene= -2.52709200000000E-04
 Spin= Alpha
 Occup=-0.000500
  1       0.009988663289
  2       0.031575459995
  3      -0.029880683931
  4       0.007722257831
  5       0.015573582232
  6       0.277310062886
  7      -0.210378701033
  8       0.091536359127
  9       0.326516243211
 10       0.004918358708
 11      -0.075185040222
 12       0.000737618693
 13       0.083947680918
 14      -0.020947636721
 15       0.091555425414
 16       0.570759711417
 17      -0.364188268560
 18       0.327017738380
 19       0.343783068331
 20       0.017134923370
 21       0.176180825002
 22      -0.149294800521
 23       0.013653476190
 24       0.047208472269
 25      -0.659690852364
 26       0.470439531347
 27      -0.038438522313
 28       0.060091921541
 29       0.011160715285
 30      -0.133934928169
 31       0.021887901296
 32      -0.014056638967
 33       0.008131044278
 34       0.085513841924
 35      -0.782181356031
 36      -0.150489128449
 37       0.144953921352
 38       0.420406194800
 39       0.015429835526
 40       0.204175857711
 41      -0.139075894334
 42       0.028418774664
 43       0.033551080274
 44      -0.572337951631
 45       0.371216296412
 46      -0.077409664070
 47      -0.205446255684
 48      -0.057811832068
 49       0.069248818294
 50      -0.026838414393
 51       0.046717284933
 52      -0.016281240439
 53       0.080284803534
 54      -0.130166952701
 55      -0.188379140087
 56      -0.022771901972
 57       0.008458598249
 58      -0.009258357598
 59      -0.077825747433
 60      -0.159449553295
 61       0.093417225195
 62       0.117714044741
 63       0.206128604206
 64       0.649422318099
 65      -0.390726624174
 66      -0.389678667260
 67      -0.002806133864
 68      -0.026584035099
 69       0.007888208210
 70       0.006529292448
 71      -0.005152678221
 72      -0.005737987837
 73       0.124249916149
 74      -2.035971374974
 75       0.353225856144
 76       1.434647390769
 77      -0.097718392493
 78       0.462747804495
 79      -0.005068402264
 80      -0.168332369419
 81      -0.003299760694
 82       0.003450980761
 83       0.088059590880
 84      -0.050077137980
 85      -0.020406967233
 86       0.287212621931
 87      -0.202664657495
 88      -0.034029961817
 89       0.171833392909
 90       0.014111098898
 91      -0.024594316857
 92      -0.054849486100
 93      -0.009986114392
 94      -0.006844261045
 95      -0.004990537996
 96       8.995333807092
 97       4.066667227000
 98      -1.107142950626
 99      -1.905821213457
100      -0.046209097133
101      -0.048215635548
102      -0.001819312847
103       0.087987684982
104      -0.054790147518
105       0.015868088139
106       0.003919315845
107       0.081626509223
108       0.880437115648
109       0.423123306990
110       0.086597708398
111       0.033451871709
112       0.025960699485
113      -0.075696038051
114       0.047522682612
115      -0.062481524830
116      -0.033066090806
117      -6.571545799616
118       1.895192338936
119      -0.653710290183
120      -0.033952073479
121       0.001173549117
122      -0.055401325975
123       0.186651263915
124       0.030857167368
125       0.036341338628
126       0.272856266922
127      -0.761948036943
128       0.045037345996
129      -0.056619484437
130      -0.000604202382
131       0.002956588007
132      -0.016285937340
133      -0.015885066629
134      -0.128364425411
135       0.048123265916
136       0.550333641664
137       0.076148233342
138       0.171184699298
139      -0.057206200003
140       0.022121065033
141       0.245408703782
142       0.094708312892
143       0.006233692481
144       0.012120072692
145      -0.952842253863
146      -0.144505755692
147       0.129956909927
148       0.004422190211
149      -0.023291909035
150       0.019552507623
151      -0.001150714124
152       0.022883916843
153       0.032930380078
154       0.118719817238
155      -1.023267128284
156       0.448556550654
157       0.238587726963
158       0.054495890335
159       0.033126598934
160      -0.029356007237
161       0.000057855669
162      -0.035888101071
163      -0.006782738946
164       0.049093180875
165       0.012163946975
166       0.087092783863
167       0.059030066760
168      -0.141869093304
169      -0.044009046896
170       0.001897833844
171      -0.011813378368
172       0.059725079300
173      -0.045316329443
174      -0.033639427554
175       0.014307823146
176      -1.726266196237
177      -0.839112350674
178       0.717547387516
179       0.169050765491
180       0.020229945818
181      -0.063524910980
182       0.040180785317
183      -0.170493466949
184      -0.033672743962
185       0.100312366083
 Sym=     1a
 Ene= -1.59719700000000E-04
 Spin= Alpha
 Occup=-0.000300
  1      -0.012584407816
  2      -0.058956693119
  3       0.058451753244
  4       0.008205550479
  5      -0.029070036982
  6      -0.264524237907
  7       0.030335036938
  8      -0.056220419668
  9      -0.562414596423
 10      -0.006666209513
 11       0.064879017521
 12      -0.024719860796
 13      -0.069378969397
 14       0.052782853503
 15      -0.060114271584
 16       1.028270980870
 17       0.874639236999
 18       0.060776866222
 19      -0.288257620944
 20      -0.032047201053
 21      -0.277212936194
 22       0.109362321289
 23      -0.007316958026
 24      -0.043592191149
 25       1.089758960421
 26      -0.340715843723
 27       0.015494145178
 28      -0.139015128153
 29      -0.008897748476
 30       0.102512166704
 31      -0.005269213258
 32       0.006007841554
 33       0.009333543679
 34      -0.189865939204
 35       0.676332943081
 36       0.258415935271
 37      -0.056502070786
 38      -0.339035972901
 39      -0.020859875278
 40      -0.205732970067
 41       0.103093243125
 42      -0.012040534320
 43      -0.025621756682
 44       0.469474416054
 45      -0.294443339288
 46       0.053668634608
 47       0.129999422456
 48       0.051988505738
 49      -0.059001832842
 50       0.006190202761
 51      -0.018883369955
 52       0.009567024152
 53      -0.142079756530
 54       0.086651343860
 55       0.230675269886
 56      -0.085166633861
 57      -0.001502067504
 58      -0.013051369139
 59      -0.124465766315
 60       0.084361635890
 61      -0.016131188673
 62      -0.091053629975
 63       0.414853749651
 64      -0.277151349403
 65      -0.006321022314
 66       0.336304882592
 67      -0.021372853813
 68       0.018867294543
 69      -0.003205238659
 70       0.007834965744
 71      -0.009086413432
 72      -0.053434166616
 73      -1.243524703002
 74       1.609099207829
 75      -0.356628991395
 76      -0.884031019785
 77       0.081561857202
 78      -0.192215547347
 79      -0.002365017703
 80       0.008724414541
 81      -0.006241645751
 82       0.051059086850
 83       0.100112470643
 84      -0.070943584311
 85       0.007200944121
 86       0.420982279020
 87      -0.040660285130
 88       0.074880522690
 89      -0.166503198233
 90       0.038564623389
 91       0.008385236555
 92      -0.002137787317
 93      -0.057906343680
 94       0.026844410779
 95      -0.038608382888
 96       6.838302982645
 97       2.567001326517
 98      -1.407419684015
 99      -0.211540968689
100       0.000481233372
101       0.033735164033
102       0.004519924446
103       0.116789403690
104      -0.024828011166
105       0.038400465794
106       0.009467742497
107      -0.256572257627
108       0.670245976357
109      -0.314147365355
110       0.017361873488
111      -0.014084522706
112      -0.050667208841
113       0.027829000980
114       0.054335233801
115      -0.167493446960
116      -0.020541803268
117      -6.759074334186
118       2.585556882324
119      -0.895673887204
120      -0.310114399358
121       0.028662421408
122       0.229976856814
123       0.194290253827
124      -0.038975129224
125      -0.022757669208
126      -0.781217753582
127      -0.725244224839
128       0.054729173575
129       0.027003182938
130      -0.025280440539
131      -0.076400278234
132       0.032566252448
133      -0.035198180921
134      -0.153451217543
135       0.218094745357
136      -0.151119349913
137       0.618375403632
138       0.064951987681
139       0.100284272539
140       0.020894644045
141       0.210364729728
142       0.106453977567
143      -0.021323294577
144       0.036290412624
145      -0.640188374193
146      -0.315835817815
147       0.140030886178
148      -0.101005134598
149      -0.020943605053
150       0.027241931496
151      -0.008127436536
152       0.069403373471
153       0.047104649257
154       0.142413709739
155      -0.306513277499
156       0.156061434708
157       0.255735955978
158       0.125544595249
159       0.075809254166
160      -0.255415641043
161       0.002212337498
162      -0.031690582326
163       0.008028147650
164       0.056155519027
165      -0.007054630999
166      -0.073586672624
167       0.053731945026
168      -0.046741067018
169      -0.056924050494
170       0.003824516459
171      -0.029284764211
172      -0.042782327457
173       0.008393776052
174       0.019912915245
175       0.027654888524
176       0.136331383488
177      -0.314680280328
178       0.265709794757
179       0.066074686227
180      -0.029728776454
181       0.215072977309
182       0.063259058882
183      -0.244699765352
184       0.024458003521
185      -0.208664401347
 Sym=     1a
 Ene= -8.68997000000000E-05
 Spin= Alpha
 Occup=-0.000200
  1      -0.000103946797
  2      -0.001811009909
  3       0.008966784767
  4      -0.007329817461
  5       0.012127724360
  6      -0.008339962532
  7      -0.148986197578
  8      -0.018418833443
  9      -0.392529463700
 10       0.010790025976
 11      -0.040863126629
 12       0.018530284812
 13       0.002315574321
 14      -0.011248752444
 15       0.009942859201
 16      -0.030191384617
 17       0.021390499459
 18      -0.018087846987
 19      -0.006325113181
 20      -0.019881336667
 21      -0.131039276617
 22      -0.040255034711
 23       0.004726531594
 24      -0.019542396298
 25       0.590262180058
 26       0.142915843684
 27      -0.021642334498
 28      -0.027052178118
 29      -0.011552124575
 30      -0.017018683308
 31       0.000939437173
 32       0.004444666080
 33      -0.013839070203
 34      -0.138301640038
 35       0.042212918865
 36      -0.110445936839
 37      -0.015243806946
 38      -0.044258258557
 39       0.004941914036
 40       0.043915410483
 41       0.011195612890
 42      -0.016480354081
 43      -0.020674892733
 44      -0.263322625335
 45      -0.082374648192
 46       0.041594257068
 47       0.030687168816
 48       0.015367336738
 49       0.002147919708
 50       0.008210470869
 51       0.002421409467
 52       0.015140962090
 53       0.027573410084
 54      -0.420006408238
 55      -0.104013978061
 56       0.038232963162
 57      -0.163401310367
 58       0.011807671870
 59       0.016542727197
 60      -0.022051287303
 61      -0.021261392942
 62      -0.018192141671
 63      -0.290387038925
 64       0.034223133014
 65       0.104593665464
 66       0.050917840118
 67      -0.002227417647
 68      -0.028003349980
 69      -0.014308570844
 70       0.002060718562
 71       0.022083132399
 72       0.072532588110
 73      -1.535086342377
 74      -0.820827840937
 75      -0.289733924682
 76       0.166813825343
 77       0.039958405662
 78       0.100044134152
 79      -0.013166132321
 80       0.345277015294
 81      -0.002324180369
 82       0.014317863049
 83       0.031678228126
 84       0.063000097326
 85      -0.023549770891
 86      -0.022028605764
 87      -0.303096680767
 88      -0.268670570060
 89       0.140493306610
 90       0.000104355152
 91      -0.059529159815
 92       0.063185239655
 93       0.009808271501
 94      -0.002380977135
 95      -0.025401368058
 96       4.436494030497
 97      -0.867283173616
 98       2.389559919571
 99      -2.382546069437
100       0.013437279155
101      -0.138145653775
102      -0.002149809505
103      -0.032783266396
104      -0.010186074485
105      -0.043835611399
106       0.118197558945
107       0.158275501618
108      -0.131972578401
109       0.149070495323
110       0.005274661391
111       0.038728182041
112       0.192196068526
113       0.144759623743
114      -0.015426842559
115      -0.048574763205
116       0.008427776330
117       1.846188377808
118      -0.751735099573
119      -0.273287956798
120       1.584210365841
121      -0.011065223004
122      -0.055495456973
123      -0.018737950781
124      -0.006936294103
125       0.056090829035
126       0.211933804186
127       0.080532544013
128      -0.026524738821
129      -0.016443461789
130      -0.010939899214
131      -0.071939259474
132      -0.105130759470
133      -0.001409831696
134       0.034371043819
135      -0.094007658963
136       0.218469838593
137      -0.086307056502
138       0.277943222076
139      -0.635880871234
140      -0.003066871390
141      -0.019207836801
142      -0.008773149305
143      -0.047481944896
144       0.316180457157
145       0.091323085860
146       0.007740429111
147       0.135040951905
148      -1.018469952352
149       0.007392861538
150       0.038301504419
151       0.051861235204
152      -0.003703348266
153      -0.006515153002
154      -0.009739197476
155      -0.351400444331
156       0.241087077969
157      -0.139058914500
158       0.922266291583
159      -0.019904018930
160       0.036962704952
161      -0.014840130183
162      -0.055298104951
163      -0.030238382754
164      -0.043803654235
165       0.070186867465
166       0.233769294810
167       0.279510117272
168      -0.040420048701
169      -0.136837842185
170       0.019484784529
171      -0.021667970852
172       0.026412147967
173      -0.002070622316
174      -0.007716695016
175      -0.059382762498
176      -5.510686057866
177       0.207791210727
178       0.942290670769
179      -0.169714457305
180       0.020874516657
181       0.158723983719
182      -0.044049708087
183       0.019177480919
184      -0.148217176414
185       0.327040627349
 Sym=     1a
 Ene= -6.40844000000000E-05
 Spin= Alpha
 Occup=-0.000100
  1      -0.000045901175
  2       0.043868963391
  3      -0.071279788187
  4       0.008811820517
  5      -0.094314505395
  6      -0.253457555979
  7       0.575372068711
  8       0.015981942086
  9       1.270177059632
 10      -0.064955681449
 11       0.173638156818
 12      -0.053745614858
 13       0.013697151568
 14       0.011307459868
 15      -0.040291396789
 16      -0.960926180570
 17      -0.400322607896
 18      -0.116666812436
 19       0.198991039140
 20       0.064719459555
 21       0.402384777631
 22       0.122729877165
 23      -0.016682503297
 24       0.081958083221
 25      -1.867337301506
 26      -0.510457930437
 27       0.085891979863
 28      -0.107042187205
 29       0.049572168577
 30       0.087636100591
 31       0.002132127228
 32       0.024613995155
 33       0.020372097703
 34       0.458413876450
 35       0.019550318434
 36       0.796611510218
 37      -0.103950878816
 38       0.505005297043
 39      -0.077248521394
 40      -0.458494774038
 41      -0.037844289680
 42       0.036227201843
 43       0.169463613816
 44       2.009908344664
 45       0.303903704911
 46      -0.122648905251
 47      -0.415232929874
 48      -0.068404170583
 49      -0.043871462247
 50      -0.017775884944
 51      -0.013429543347
 52      -0.016611556544
 53      -0.575103536428
 54       1.614951220660
 55       0.533791547730
 56       0.062590392795
 57       1.075470153964
 58      -0.021164587059
 59      -0.040276220406
 60       0.071400268036
 61       0.039479967192
 62       0.069633373319
 63       0.458679368868
 64      -0.209969814075
 65      -0.016541933236
 66      -0.267595398556
 67      -0.008316073507
 68       0.072900342719
 69      -0.005892108094
 70       0.000202476991
 71      -0.013704036342
 72      -0.132537493246
 73      -0.683480772752
 74       1.664214083992
 75      -0.298903035587
 76       0.372670639586
 77      -0.150986878822
 78       0.684164430867
 79       0.011287798835
 80      -0.011897771505
 81       0.017512676827
 82       0.140581430935
 83      -0.077668286268
 84      -0.052594168127
 85      -0.009881550362
 86      -0.313455480289
 87       0.140406932683
 88       0.279308905725
 89       0.437496159535
 90      -0.014784906685
 91      -0.036598334416
 92       0.002652920518
 93      -0.034573678288
 94       0.007531012372
 95       0.036257041285
 96      -4.957834904240
 97      -2.556730546669
 98       0.761504946933
 99       0.525745610221
100       0.074093608581
101      -0.829037983670
102      -0.009977787789
103      -0.096832161357
104       0.001782542040
105      -0.036419512196
106       0.023123020328
107       0.462196461145
108      -0.215178621941
109       0.079973551975
110      -0.092748328418
111      -0.014402611464
112       0.046665655258
113       0.033172451436
114       0.010317699790
115       0.012159239981
116       0.002127610022
117       4.940922471191
118      -1.238072010821
119       0.639378186511
120       0.374550504016
121      -0.015447187660
122      -0.073124785542
123       0.001387079865
124       0.019189696775
125       0.007764643724
126       0.301586414417
127       0.007650315518
128      -0.097837112646
129       0.013764285099
130       0.004034818012
131       0.005774019777
132      -0.010374921121
133       0.009499382730
134       0.033143448066
135      -0.115546659855
136      -0.668631682663
137       0.429049634750
138      -0.051408084499
139      -0.187961136522
140       0.008626050150
141       0.061237912769
142       0.001144591506
143       0.032485731583
144       0.056766239710
145      -0.214767328165
146       0.034755815836
147      -0.117619606874
148      -0.183347838622
149       0.000167262805
150       0.002024524806
151      -0.006679771388
152      -0.012213158899
153      -0.017749435258
154       0.060121813767
155       0.075258510109
156       0.072359877272
157       0.126216693883
158       0.226057436025
159      -0.019370452043
160       0.040158593434
161       0.000549869466
162      -0.025946476004
163       0.050540703443
164       0.036674148218
165       0.056705113658
166      -0.013367800057
167      -0.257988228248
168      -0.259003064768
169      -0.273659787852
170       0.014095520588
171      -0.037331206085
172       0.008695893989
173      -0.001614331306
174      -0.028191488509
175       0.016654831058
176       0.538826815711
177       0.530910840973
178      -0.115903438331
179       0.125890989446
180      -0.062719603756
181       0.151616448409
182       0.104054893265
183       0.001271194384
184      -0.098606195878
185       0.126973670248
 Sym=     1a
 Ene= -5.41456000000000E-05
 Spin= Alpha
 Occup=-0.000100
  1      -0.001446899520
  2      -0.002659111608
  3       0.050946025482
  4      -0.001021813688
  5       0.011228643361
  6      -0.296339420557
  7      -0.200120714861
  8       0.008987206412
  9      -0.389369102047
 10       0.010569430704
 11      -0.024828296019
 12       0.020765095776
 13      -0.017291195512
 14       0.031732714372
 15      -0.001419718629