
    -----------------------------------------------------------------------
          Psi4: An Open-Source Ab Initio Electronic Structure Package
                               Psi4 1.2.1 release

                         Git: Rev {HEAD} 406f4de 


    R. M. Parrish, L. A. Burns, D. G. A. Smith, A. C. Simmonett,
    A. E. DePrince III, E. G. Hohenstein, U. Bozkaya, A. Yu. Sokolov,
    R. Di Remigio, R. M. Richard, J. F. Gonthier, A. M. James,
    H. R. McAlexander, A. Kumar, M. Saitow, X. Wang, B. P. Pritchard,
    P. Verma, H. F. Schaefer III, K. Patkowski, R. A. King, E. F. Valeev,
    F. A. Evangelista, J. M. Turney, T. D. Crawford, and C. D. Sherrill,
    J. Chem. Theory Comput. 13(7) pp 3185--3197 (2017).
    (doi: 10.1021/acs.jctc.7b00174)


                         Additional Contributions by
    P. Kraus, H. Kruse, M. H. Lechner, M. C. Schieber, and R. A. Shaw

    -----------------------------------------------------------------------


    Psi4 started on: Tuesday, 12 February 2019 02:45PM

    Process ID: 2856
    Host:       localhost.localdomain
    PSIDATADIR: /root/psi4conda/share/psi4
    Memory:     500.0 MiB
    Threads:    1
    
  ==> Input File <==

--------------------------------------------------------------------------
molecule{
0 1
    C           -2.005217769593    -0.199237767993     0.365170813877
    O           -2.183267301723    -0.071482649957     1.548171482950
    O           -2.717776087611    -0.146346666465    -0.710058018997
    N           -0.624503354044    -0.450496918147    -0.303712706182
    H           -1.535199220469    -0.277358282065    -1.217511552159
    H           -0.339892470928    -1.431513814489    -0.212528229693
    C            0.476621524553     0.432265710128     0.119585943527
    H            0.379000816751     0.583382498823     1.206768758991
    C            1.791265890324    -0.309118308705    -0.092779138810
    O            1.874997282961    -1.488367475796    -0.367323265466
    O            2.861450199697     0.485755835615     0.098375081742
    H            3.662419460785    -0.062402936520    -0.009883307599
    C            0.406615235091     1.791492697625    -0.585743509235
    H           -0.560927712260     2.263315252141    -0.386713384136
    H            1.194136242771     2.453051296298    -0.217352126953
    H            0.520727300219     1.675169915320    -1.668818203510
 
}

set{
   basis 6-31+G*
   full_hess_every 0
   freeze_core True
   normal_modes_write True
}


set_num_threads(16)
frequencies('b3lyp')
--------------------------------------------------------------------------
  Threads set to 16 by Python driver.
gradient() will perform analytic gradient computation.

*** tstart() called on localhost.localdomain
*** at Tue Feb 12 14:45:57 2019

   => Loading Basis Set <=

    Name: 6-31+G*
    Role: ORBITAL
    Keyword: BASIS
    atoms 1, 7, 9, 13       entry C          line   119 file /root/psi4conda/share/psi4/basis/6-31pgs.gbs 
    atoms 2-3, 10-11        entry O          line   157 file /root/psi4conda/share/psi4/basis/6-31pgs.gbs 
    atoms 4                 entry N          line   138 file /root/psi4conda/share/psi4/basis/6-31pgs.gbs 
    atoms 5-6, 8, 12, 14-16 entry H          line    46 file /root/psi4conda/share/psi4/basis/6-31pgs.gbs 


         ---------------------------------------------------------
                                   SCF
            by Justin Turney, Rob Parrish, Andy Simmonett
                             and Daniel Smith
                              RKS Reference
                       16 Threads,    500 MiB Core
         ---------------------------------------------------------

  ==> Geometry <==

    Molecular point group: c1
    Full point group: C1

    Geometry (in Angstrom), charge = 0, multiplicity = 1:

       Center              X                  Y                   Z               Mass       
    ------------   -----------------  -----------------  -----------------  -----------------
         C           -2.005217769593    -0.199237767993     0.365170813877    12.000000000000
         O           -2.183267301723    -0.071482649957     1.548171482950    15.994914619560
         O           -2.717776087611    -0.146346666465    -0.710058018997    15.994914619560
         N           -0.624503354044    -0.450496918147    -0.303712706182    14.003074004780
         H           -1.535199220469    -0.277358282065    -1.217511552159     1.007825032070
         H           -0.339892470928    -1.431513814489    -0.212528229693     1.007825032070
         C            0.476621524553     0.432265710128     0.119585943527    12.000000000000
         H            0.379000816751     0.583382498823     1.206768758991     1.007825032070
         C            1.791265890324    -0.309118308705    -0.092779138810    12.000000000000
         O            1.874997282961    -1.488367475796    -0.367323265466    15.994914619560
         O            2.861450199697     0.485755835615     0.098375081742    15.994914619560
         H            3.662419460785    -0.062402936520    -0.009883307599     1.007825032070
         C            0.406615235091     1.791492697625    -0.585743509235    12.000000000000
         H           -0.560927712260     2.263315252141    -0.386713384136     1.007825032070
         H            1.194136242771     2.453051296298    -0.217352126953     1.007825032070
         H            0.520727300219     1.675169915320    -1.668818203510     1.007825032070

  Running in c1 symmetry.

  Rotational constants: A =      0.10537  B =      0.03019  C =      0.02801 [cm^-1]
  Rotational constants: A =   3158.94797  B =    905.04259  C =    839.76778 [MHz]
  Nuclear repulsion =  465.888831863615508

  Charge       = 0
  Multiplicity = 1
  Electrons    = 70
  Nalpha       = 35
  Nbeta        = 35

  ==> Algorithm <==

  SCF Algorithm Type is DF.
  DIIS enabled.
  MOM disabled.
  Fractional occupation disabled.
  Guess Type is SAD.
  Energy threshold   = 1.00e-08
  Density threshold  = 1.00e-08
  Integral threshold = 0.00e+00

  ==> Primary Basis <==

  Basis Set: 6-31+G*
    Blend: 6-31+G*
    Number of shells: 86
    Number of basis function: 185
    Number of Cartesian functions: 185
    Spherical Harmonics?: false
    Max angular momentum: 2

  ==> DFT Potential <==

   => Composite Functional: B3LYP <= 

    B3LYP Hyb-GGA Exchange-Correlation Functional

    P. J. Stephens, F. J. Devlin, C. F. Chabalowski, and M. J. Frisch, J. Phys. Chem. 98, 11623 (1994)

    Deriv               =              1
    GGA                 =           TRUE
    Meta                =          FALSE

    Exchange Hybrid     =           TRUE
    MP2 Hybrid          =          FALSE

   => Exchange Functionals <=

    0.0800   Slater exchange
    0.7200         Becke 88

   => Exact (HF) Exchange <=

    0.2000               HF 

   => Correlation Functionals <=

    0.1900   Vosko, Wilk & Nusair (VWN5_RPA)
    0.8100   Lee, Yang & Parr

   => Molecular Quadrature <=

    Radial Scheme       =       TREUTLER
    Pruning Scheme      =           FLAT
    Nuclear Scheme      =       TREUTLER

    BS radius alpha     =              1
    Pruning alpha       =              1
    Radial Points       =             75
    Spherical Points    =            302
    Total Points        =         362400
    Total Blocks        =           2725
    Max Points          =            256
    Max Functions       =            178

   => Loading Basis Set <=

    Name: (6-31+G* AUX)
    Role: JKFIT
    Keyword: DF_BASIS_SCF
    atoms 1, 7, 9, 13       entry C          line   194 file /root/psi4conda/share/psi4/basis/heavy-aug-cc-pvdz-jkfit.gbs 
    atoms 2-3, 10-11        entry O          line   310 file /root/psi4conda/share/psi4/basis/heavy-aug-cc-pvdz-jkfit.gbs 
    atoms 4                 entry N          line   252 file /root/psi4conda/share/psi4/basis/heavy-aug-cc-pvdz-jkfit.gbs 
    atoms 5-6, 8, 12, 14-16 entry H          line   116 file /root/psi4conda/share/psi4/basis/heavy-aug-cc-pvdz-jkfit.gbs 

  ==> Pre-Iterations <==

   -------------------------------------------------------
    Irrep   Nso     Nmo     Nalpha   Nbeta   Ndocc  Nsocc
   -------------------------------------------------------
     A        185     185       0       0       0       0
   -------------------------------------------------------
    Total     185     185      35      35      35       0
   -------------------------------------------------------

  ==> Integral Setup <==

  ==> DiskDFJK: Density-Fitted J/K Matrices <==

    J tasked:                  Yes
    K tasked:                  Yes
    wK tasked:                  No
    OpenMP threads:             16
    Integrals threads:          16
    Memory (MB):               375
    Algorithm:                Core
    Integral Cache:           NONE
    Schwarz Cutoff:          1E-12
    Fitting Condition:       1E-12

   => Auxiliary Basis Set <=

  Basis Set: (6-31+G* AUX)
    Blend: HEAVY-AUG-CC-PVDZ-JKFIT
    Number of shells: 315
    Number of basis function: 1084
    Number of Cartesian functions: 1084
    Spherical Harmonics?: false
    Max angular momentum: 3

  Minimum eigenvalue in the overlap matrix is 4.0196758711E-05.
  Using Symmetric Orthogonalization.

  SCF Guess: Superposition of Atomic Densities via on-the-fly atomic UHF.

  ==> Iterations <==

                           Total Energy        Delta E     RMS |[F,P]|

   @DF-RKS iter   0:  -514.00506031295947   -5.14005e+02   1.08620e-01 
   @DF-RKS iter   1:  -511.98571714333389    2.01934e+00   1.70825e-02 
   @DF-RKS iter   2:  -511.56246211273623    4.23255e-01   2.96843e-02 DIIS
   @DF-RKS iter   3:  -512.26894523645797   -7.06483e-01   4.08430e-03 DIIS
   @DF-RKS iter   4:  -512.28189201954888   -1.29468e-02   1.76557e-03 DIIS
   @DF-RKS iter   5:  -512.28438312820197   -2.49111e-03   5.52775e-04 DIIS
   @DF-RKS iter   6:  -512.28462914410989   -2.46016e-04   1.72287e-04 DIIS
   @DF-RKS iter   7:  -512.28465849684301   -2.93527e-05   6.95803e-05 DIIS
   @DF-RKS iter   8:  -512.28466252605529   -4.02921e-06   1.76821e-05 DIIS
   @DF-RKS iter   9:  -512.28466277745383   -2.51399e-07   8.02914e-06 DIIS
   @DF-RKS iter  10:  -512.28466282245188   -4.49980e-08   3.00671e-06 DIIS
   @DF-RKS iter  11:  -512.28466283268631   -1.02344e-08   8.42308e-07 DIIS
   @DF-RKS iter  12:  -512.28466283345517   -7.68864e-10   2.70792e-07 DIIS
   @DF-RKS iter  13:  -512.28466283352407   -6.88942e-11   5.80314e-08 DIIS
   @DF-RKS iter  14:  -512.28466283352725   -3.18323e-12   2.74499e-08 DIIS
   @DF-RKS iter  15:  -512.28466283352850   -1.25056e-12   3.95451e-09 DIIS

  ==> Post-Iterations <==

    Orbital Energies [Eh]
    ---------------------

    Doubly Occupied:                                                      

       1A    -19.248770     2A    -19.194436     3A    -19.173223  
       4A    -19.162460     5A    -14.410291     6A    -10.371005  
       7A    -10.355565     8A    -10.284997     9A    -10.220710  
      10A     -1.157353    11A     -1.112691    12A     -1.068583  
      13A     -1.036768    14A     -0.952589    15A     -0.806502  
      16A     -0.713259    17A     -0.651879    18A     -0.601708  
      19A     -0.553802    20A     -0.537097    21A     -0.534627  
      22A     -0.525424    23A     -0.485844    24A     -0.472878  
      25A     -0.458391    26A     -0.442366    27A     -0.439149  
      28A     -0.427157    29A     -0.408770    30A     -0.391706  
      31A     -0.368826    32A     -0.327807    33A     -0.318410  
      34A     -0.316819    35A     -0.290095  

    Virtual:                                                              

      36A     -0.044865    37A     -0.023346    38A      0.000343  
      39A      0.007071    40A      0.014595    41A      0.019406  
      42A      0.042577    43A      0.048058    44A      0.056584  
      45A      0.059077    46A      0.069804    47A      0.078920  
      48A      0.090125    49A      0.094435    50A      0.100088  
      51A      0.110735    52A      0.111328    53A      0.124400  
      54A      0.133343    55A      0.141913    56A      0.149531  
      57A      0.163308    58A      0.172826    59A      0.174444  
      60A      0.188385    61A      0.197894    62A      0.199435  
      63A      0.216852    64A      0.224468    65A      0.233430  
      66A      0.239749    67A      0.244786    68A      0.253636  
      69A      0.264868    70A      0.272464    71A      0.276056  
      72A      0.285276    73A      0.293043    74A      0.297900  
      75A      0.301749    76A      0.304560    77A      0.316895  
      78A      0.329436    79A      0.334157    80A      0.340447  
      81A      0.344712    82A      0.357460    83A      0.361790  
      84A      0.390418    85A      0.414258    86A      0.425437  
      87A      0.479342    88A      0.545626    89A      0.622182  
      90A      0.629535    91A      0.654221    92A      0.678534  
      93A      0.703337    94A      0.729430    95A      0.753192  
      96A      0.766473    97A      0.792175    98A      0.809528  
      99A      0.837529   100A      0.872459   101A      0.903051  
     102A      0.936008   103A      0.949848   104A      0.968623  
     105A      0.984044   106A      1.011836   107A      1.019516  
     108A      1.039641   109A      1.077783   110A      1.101148  
     111A      1.113511   112A      1.124602   113A      1.159276  
     114A      1.188192   115A      1.212097   116A      1.236250  
     117A      1.246288   118A      1.253872   119A      1.276438  
     120A      1.296192   121A      1.303203   122A      1.312629  
     123A      1.320898   124A      1.336141   125A      1.345311  
     126A      1.375133   127A      1.401399   128A      1.439440  
     129A      1.489786   130A      1.533492   131A      1.575437  
     132A      1.593431   133A      1.604997   134A      1.647621  
     135A      1.677517   136A      1.688517   137A      1.720467  
     138A      1.738833   139A      1.754385   140A      1.768820  
     141A      1.778555   142A      1.801529   143A      1.816918  
     144A      1.832880   145A      1.859965   146A      1.899197  
     147A      1.917291   148A      1.966405   149A      1.983881  
     150A      2.014892   151A      2.038806   152A      2.059844  
     153A      2.077581   154A      2.118782   155A      2.170738  
     156A      2.193518   157A      2.275513   158A      2.280271  
     159A      2.313824   160A      2.351277   161A      2.427487  
     162A      2.443150   163A      2.517264   164A      2.550313  
     165A      2.593484   166A      2.626767   167A      2.645218  
     168A      2.763660   169A      2.847654   170A      2.881710  
     171A      2.909637   172A      2.971771   173A      3.080348  
     174A      3.099810   175A      3.117150   176A      3.200406  
     177A      3.993042   178A      4.122616   179A      4.204783  
     180A      4.223718   181A      4.346729   182A      4.421341  
     183A      4.516812   184A      4.541725   185A      4.639892  

    Final Occupation by Irrep:
              A 
    DOCC [    35 ]

  Energy converged.

  @DF-RKS Final Energy:  -512.28466283352850

   => Energetics <=

    Nuclear Repulsion Energy =            465.8888318636155077
    One-Electron Energy =               -1622.6628684165470986
    Two-Electron Energy =                 697.4492057269675342
    DFT Exchange-Correlation Energy =     -52.9598320075644224
    Empirical Dispersion Energy =           0.0000000000000000
    VV10 Nonlocal Energy =                  0.0000000000000000
    Total Energy =                       -512.2846628335285004



Properties will be evaluated at   0.000000,   0.000000,   0.000000 [a0]

Properties computed using the SCF density matrix

  Nuclear Dipole Moment: [e a0]
     X:     3.1137      Y:     4.8737      Z:    -2.3457

  Electronic Dipole Moment: [e a0]
     X:    -1.0213      Y:    -4.4438      Z:     1.7969

  Dipole Moment: [e a0]
     X:     2.0924      Y:     0.4299      Z:    -0.5488     Total:     2.2055

  Dipole Moment: [D]
     X:     5.3183      Y:     1.0926      Z:    -1.3949     Total:     5.6057


*** tstop() called on localhost.localdomain at Tue Feb 12 14:46:05 2019
Module time:
	user time   =     110.33 seconds =       1.84 minutes
	system time =       2.84 seconds =       0.05 minutes
	total time  =          8 seconds =       0.13 minutes
Total time:
	user time   =     110.33 seconds =       1.84 minutes
	system time =       2.84 seconds =       0.05 minutes
	total time  =          8 seconds =       0.13 minutes

*** tstart() called on localhost.localdomain
*** at Tue Feb 12 14:46:05 2019


         ------------------------------------------------------------
                                   SCF GRAD                          
                          Rob Parrish, Justin Turney,                
                       Andy Simmonett, and Alex Sokolov              
         ------------------------------------------------------------

  ==> Geometry <==

    Molecular point group: c1
    Full point group: C1

    Geometry (in Angstrom), charge = 0, multiplicity = 1:

       Center              X                  Y                   Z               Mass       
    ------------   -----------------  -----------------  -----------------  -----------------
         C           -2.005217769593    -0.199237767993     0.365170813877    12.000000000000
         O           -2.183267301723    -0.071482649957     1.548171482950    15.994914619560
         O           -2.717776087611    -0.146346666465    -0.710058018997    15.994914619560
         N           -0.624503354044    -0.450496918147    -0.303712706182    14.003074004780
         H           -1.535199220469    -0.277358282065    -1.217511552159     1.007825032070
         H           -0.339892470928    -1.431513814489    -0.212528229693     1.007825032070
         C            0.476621524553     0.432265710128     0.119585943527    12.000000000000
         H            0.379000816751     0.583382498823     1.206768758991     1.007825032070
         C            1.791265890324    -0.309118308705    -0.092779138810    12.000000000000
         O            1.874997282961    -1.488367475796    -0.367323265466    15.994914619560
         O            2.861450199697     0.485755835615     0.098375081742    15.994914619560
         H            3.662419460785    -0.062402936520    -0.009883307599     1.007825032070
         C            0.406615235091     1.791492697625    -0.585743509235    12.000000000000
         H           -0.560927712260     2.263315252141    -0.386713384136     1.007825032070
         H            1.194136242771     2.453051296298    -0.217352126953     1.007825032070
         H            0.520727300219     1.675169915320    -1.668818203510     1.007825032070

  Nuclear repulsion =  465.888831863615508

  ==> Basis Set <==

  Basis Set: 6-31+G*
    Blend: 6-31+G*
    Number of shells: 86
    Number of basis function: 185
    Number of Cartesian functions: 185
    Spherical Harmonics?: false
    Max angular momentum: 2

  ==> DFJKGrad: Density-Fitted SCF Gradients <==

    Gradient:                    1
    J tasked:                  Yes
    K tasked:                  Yes
    wK tasked:                  No
    OpenMP threads:             16
    Integrals threads:          16
    Memory (MB):               375
    Schwarz Cutoff:          0E+00
    Fitting Condition:       1E-12

   => Auxiliary Basis Set <=

  Basis Set: (6-31+G* AUX)
    Blend: HEAVY-AUG-CC-PVDZ-JKFIT
    Number of shells: 315
    Number of basis function: 1084
    Number of Cartesian functions: 1084
    Spherical Harmonics?: false
    Max angular momentum: 3

  ==> DFT Potential <==

   => Composite Functional: B3LYP <= 

    B3LYP Hyb-GGA Exchange-Correlation Functional

    P. J. Stephens, F. J. Devlin, C. F. Chabalowski, and M. J. Frisch, J. Phys. Chem. 98, 11623 (1994)

    Deriv               =              1
    GGA                 =           TRUE
    Meta                =          FALSE

    Exchange Hybrid     =           TRUE
    MP2 Hybrid          =          FALSE

   => Exchange Functionals <=

    0.0800   Slater exchange
    0.7200         Becke 88

   => Exact (HF) Exchange <=

    0.2000               HF 

   => Correlation Functionals <=

    0.1900   Vosko, Wilk & Nusair (VWN5_RPA)
    0.8100   Lee, Yang & Parr

   => Molecular Quadrature <=

    Radial Scheme       =       TREUTLER
    Pruning Scheme      =           FLAT
    Nuclear Scheme      =       TREUTLER

    BS radius alpha     =              1
    Pruning alpha       =              1
    Radial Points       =             75
    Spherical Points    =            302
    Total Points        =         362400
    Total Blocks        =           2725
    Max Points          =            256
    Max Functions       =            178


  -Total Gradient:
     Atom            X                  Y                   Z
    ------   -----------------  -----------------  -----------------
       1       -0.000131557009    -0.000004240150     0.000010938974
       2        0.000028010059     0.000024056252     0.000025937361
       3        0.000080319807    -0.000012089157     0.000083522694
       4       -0.000022603069    -0.000066856267    -0.000097216319
       5        0.000081427353     0.000011649751     0.000013014077
       6       -0.000028976329     0.000017137319    -0.000009799192
       7       -0.000017426687     0.000039923108     0.000065329046
       8       -0.000010625857    -0.000000174960    -0.000007656075
       9       -0.000115077829    -0.000048870344     0.000001088083
      10        0.000082750881     0.000066469524     0.000002286104
      11        0.000033028660    -0.000029618072    -0.000059034296
      12        0.000040194439     0.000009662808     0.000027277147
      13        0.000024872557     0.000018341108    -0.000010844827
      14       -0.000009430933    -0.000003263911    -0.000001428642
      15       -0.000012908298     0.000004769736     0.000005131653
      16        0.000005013773    -0.000003930757     0.000003264426


*** tstop() called on localhost.localdomain at Tue Feb 12 14:46:08 2019
Module time:
	user time   =      42.86 seconds =       0.71 minutes
	system time =       1.78 seconds =       0.03 minutes
	total time  =          3 seconds =       0.05 minutes
Total time:
	user time   =     153.21 seconds =       2.55 minutes
	system time =       4.62 seconds =       0.08 minutes
	total time  =         11 seconds =       0.18 minutes

  Based on options and gradient (rms=1.04E-04), recommend projecting translations and projecting rotations.
hessian() will perform frequency computation by finite difference of analytic gradients.

-------------------------------------------------------------

  Using finite-differences of gradients to determine vibrational frequencies and 
  normal modes.  Resulting frequencies are only valid at stationary points.
	Generating geometries for use with 3-point formula.
	Displacement size will be 5.00e-03.
	Number of atoms is 16.
	Number of irreps is 1.
	Number of SALCS is 42.
	Translations projected? 1. Rotations projected? 1.
	Index of salcs per irrep:
	 1 :  0  1  2  3  4  5  6  7  8  9  10  11  12  13  14  15  16  17  18  19  20  21  22  23  24  25  26  27  28  29  30  31  32  33  34  35  36  37  38  39  40  41 
	Number of SALC's per irrep:
		 Irrep 1: 42
	Number of geometries (including reference) is 85.
	Number of displacements per irrep:
	  Irrep 1: 84

  //>>>>>>>>>>>>>>>>>>>>>>>>>>>>>>>>>>>//
  //    Loading displacement 1 of 85   //
  //<<<<<<<<<<<<<<<<<<<<<<<<<<<<<<<<<<<//
gradient() will perform analytic gradient computation.

*** tstart() called on localhost.localdomain
*** at Tue Feb 12 14:46:08 2019

   => Loading Basis Set <=

    Name: 6-31+G*
    Role: ORBITAL
    Keyword: BASIS
    atoms 1, 7, 9, 13       entry C          line   119 file /root/psi4conda/share/psi4/basis/6-31pgs.gbs 
    atoms 2-3, 10-11        entry O          line   157 file /root/psi4conda/share/psi4/basis/6-31pgs.gbs 
    atoms 4                 entry N          line   138 file /root/psi4conda/share/psi4/basis/6-31pgs.gbs 
    atoms 5-6, 8, 12, 14-16 entry H          line    46 file /root/psi4conda/share/psi4/basis/6-31pgs.gbs 


         ---------------------------------------------------------
                                   SCF
            by Justin Turney, Rob Parrish, Andy Simmonett
                             and Daniel Smith
                              RKS Reference
                       16 Threads,    500 MiB Core
         ---------------------------------------------------------

  ==> Geometry <==

    Molecular point group: c1
    Full point group: C1

    Geometry (in Angstrom), charge = 0, multiplicity = 1:

       Center              X                  Y                   Z               Mass       
    ------------   -----------------  -----------------  -----------------  -----------------
         C           -2.005944847652    -0.199243965099     0.365183505295    12.000000000000
         O           -2.183184996460    -0.071488669307     1.548185209249    15.994914619560
         O           -2.717707693162    -0.146355828175    -0.710040895921    15.994914619560
         N           -0.624431438282    -0.450499112301    -0.303708507791    14.003074004780
         H           -1.535133585904    -0.277363973852    -1.217501756601     1.007825032070
         H           -0.339816838909    -1.431515038564    -0.212525194038     1.007825032070
         C            0.476693262955     0.432267313710     0.119582683348    12.000000000000
         H            0.379078883359     0.583384477365     1.206766014918     1.007825032070
         C            1.791338674645    -0.309112625115    -0.092790167878    12.000000000000
         O            1.875072127240    -1.488361697502    -0.367334073063    15.994914619560
         O            2.861521633710     0.485765070867     0.098356843599    15.994914619560
         H            3.662491973658    -0.062391202085    -0.009906218036     1.007825032070
         C            0.406678196367     1.791493630495    -0.585747190770    12.000000000000
         H           -0.560865016327     2.263313209275    -0.386711301271     1.007825032070
         H            1.194199391737     2.453054986836    -0.217361161949     1.007825032070
         H            0.520783847492     1.675170528696    -1.668822526507     1.007825032070

  Running in c1 symmetry.

  Rotational constants: A =      0.10537  B =      0.03019  C =      0.02801 [cm^-1]
  Rotational constants: A =   3158.95485  B =    904.97990  C =    839.71349 [MHz]
  Nuclear repulsion =  465.883382131218923

  Charge       = 0
  Multiplicity = 1
  Electrons    = 70
  Nalpha       = 35
  Nbeta        = 35

  ==> Algorithm <==

  SCF Algorithm Type is DF.
  DIIS enabled.
  MOM disabled.
  Fractional occupation disabled.
  Guess Type is SAD.
  Energy threshold   = 1.00e-08
  Density threshold  = 1.00e-08
  Integral threshold = 0.00e+00

  ==> Primary Basis <==

  Basis Set: 6-31+G*
    Blend: 6-31+G*
    Number of shells: 86
    Number of basis function: 185
    Number of Cartesian functions: 185
    Spherical Harmonics?: false
    Max angular momentum: 2

  ==> DFT Potential <==

   => Composite Functional: B3LYP <= 

    B3LYP Hyb-GGA Exchange-Correlation Functional

    P. J. Stephens, F. J. Devlin, C. F. Chabalowski, and M. J. Frisch, J. Phys. Chem. 98, 11623 (1994)

    Deriv               =              1
    GGA                 =           TRUE
    Meta                =          FALSE

    Exchange Hybrid     =           TRUE
    MP2 Hybrid          =          FALSE

   => Exchange Functionals <=

    0.0800   Slater exchange
    0.7200         Becke 88

   => Exact (HF) Exchange <=

    0.2000               HF 

   => Correlation Functionals <=

    0.1900   Vosko, Wilk & Nusair (VWN5_RPA)
    0.8100   Lee, Yang & Parr

   => Molecular Quadrature <=

    Radial Scheme       =       TREUTLER
    Pruning Scheme      =           FLAT
    Nuclear Scheme      =       TREUTLER

    BS radius alpha     =              1
    Pruning alpha       =              1
    Radial Points       =             75
    Spherical Points    =            302
    Total Points        =         362400
    Total Blocks        =           2725
    Max Points          =            256
    Max Functions       =            178

   => Loading Basis Set <=

    Name: (6-31+G* AUX)
    Role: JKFIT
    Keyword: DF_BASIS_SCF
    atoms 1, 7, 9, 13       entry C          line   194 file /root/psi4conda/share/psi4/basis/heavy-aug-cc-pvdz-jkfit.gbs 
    atoms 2-3, 10-11        entry O          line   310 file /root/psi4conda/share/psi4/basis/heavy-aug-cc-pvdz-jkfit.gbs 
    atoms 4                 entry N          line   252 file /root/psi4conda/share/psi4/basis/heavy-aug-cc-pvdz-jkfit.gbs 
    atoms 5-6, 8, 12, 14-16 entry H          line   116 file /root/psi4conda/share/psi4/basis/heavy-aug-cc-pvdz-jkfit.gbs 

  ==> Pre-Iterations <==

   -------------------------------------------------------
    Irrep   Nso     Nmo     Nalpha   Nbeta   Ndocc  Nsocc
   -------------------------------------------------------
     A        185     185       0       0       0       0
   -------------------------------------------------------
    Total     185     185      35      35      35       0
   -------------------------------------------------------

  ==> Integral Setup <==

  ==> DiskDFJK: Density-Fitted J/K Matrices <==

    J tasked:                  Yes
    K tasked:                  Yes
    wK tasked:                  No
    OpenMP threads:             16
    Integrals threads:          16
    Memory (MB):               375
    Algorithm:                Core
    Integral Cache:           NONE
    Schwarz Cutoff:          1E-12
    Fitting Condition:       1E-12

   => Auxiliary Basis Set <=

  Basis Set: (6-31+G* AUX)
    Blend: HEAVY-AUG-CC-PVDZ-JKFIT
    Number of shells: 315
    Number of basis function: 1084
    Number of Cartesian functions: 1084
    Spherical Harmonics?: false
    Max angular momentum: 3

  Minimum eigenvalue in the overlap matrix is 4.0201923203E-05.
  Using Symmetric Orthogonalization.

  SCF Guess: Superposition of Atomic Densities via on-the-fly atomic UHF.

  ==> Iterations <==

                           Total Energy        Delta E     RMS |[F,P]|

   @DF-RKS iter   0:  -514.02076718825640   -5.14021e+02   8.64484e-02 
   @DF-RKS iter   1:  -512.03506471014384    1.98570e+00   1.55966e-02 
   @DF-RKS iter   2:  -511.59105196240080    4.44013e-01   2.35345e-02 DIIS
   @DF-RKS iter   3:  -512.26196313615105   -6.70911e-01   4.91367e-03 DIIS
   @DF-RKS iter   4:  -512.28229656686437   -2.03334e-02   1.25010e-03 DIIS
   @DF-RKS iter   5:  -512.28409804150829   -1.80147e-03   6.02524e-04 DIIS
   @DF-RKS iter   6:  -512.28461630253673   -5.18261e-04   2.23331e-04 DIIS
   @DF-RKS iter   7:  -512.28465914240996   -4.28399e-05   4.84178e-05 DIIS
   @DF-RKS iter   8:  -512.28466202071911   -2.87831e-06   1.24714e-05 DIIS
   @DF-RKS iter   9:  -512.28466217983430   -1.59115e-07   6.08285e-06 DIIS
   @DF-RKS iter  10:  -512.28466221129850   -3.14642e-08   2.91800e-06 DIIS
   @DF-RKS iter  11:  -512.28466221862925   -7.33075e-09   6.73305e-07 DIIS
   @DF-RKS iter  12:  -512.28466221906115   -4.31896e-10   2.40336e-07 DIIS
   @DF-RKS iter  13:  -512.28466221911879   -5.76392e-11   5.27194e-08 DIIS
   @DF-RKS iter  14:  -512.28466221912072   -1.93268e-12   3.35407e-08 DIIS
   @DF-RKS iter  15:  -512.28466221912242   -1.70530e-12   5.05045e-09 DIIS

  ==> Post-Iterations <==

    Orbital Energies [Eh]
    ---------------------

    Doubly Occupied:                                                      

       1A    -19.248736     2A    -19.194394     3A    -19.173292  
       4A    -19.162487     5A    -14.410167     6A    -10.370961  
       7A    -10.355578     8A    -10.284942     9A    -10.220679  
      10A     -1.157315    11A     -1.112800    12A     -1.068544  
      13A     -1.036928    14A     -0.952487    15A     -0.806422  
      16A     -0.713217    17A     -0.651807    18A     -0.601576  
      19A     -0.553748    20A     -0.537107    21A     -0.534628  
      22A     -0.525408    23A     -0.485808    24A     -0.472864  
      25A     -0.458421    26A     -0.442441    27A     -0.439137  
      28A     -0.427127    29A     -0.408752    30A     -0.391665  
      31A     -0.368789    32A     -0.327766    33A     -0.318414  
      34A     -0.316900    35A     -0.290113  

    Virtual:                                                              

      36A     -0.044827    37A     -0.023316    38A      0.000352  
      39A      0.007184    40A      0.014609    41A      0.019420  
      42A      0.042579    43A      0.048076    44A      0.056593  
      45A      0.059068    46A      0.069804    47A      0.078878  
      48A      0.090116    49A      0.094434    50A      0.100095  
      51A      0.110739    52A      0.111335    53A      0.124381  
      54A      0.133347    55A      0.141925    56A      0.149563  
      57A      0.163318    58A      0.172842    59A      0.174462  
      60A      0.188392    61A      0.197913    62A      0.199410  
      63A      0.216849    64A      0.224472    65A      0.233441  
      66A      0.239758    67A      0.244799    68A      0.253670  
      69A      0.264893    70A      0.272459    71A      0.276051  
      72A      0.285251    73A      0.293047    74A      0.297913  
      75A      0.301757    76A      0.304588    77A      0.316859  
      78A      0.329408    79A      0.334174    80A      0.340442  
      81A      0.344732    82A      0.357464    83A      0.361803  
      84A      0.390434    85A      0.414286    86A      0.425479  
      87A      0.479385    88A      0.545949    89A      0.622198  
      90A      0.629590    91A      0.654228    92A      0.678566  
      93A      0.703357    94A      0.729514    95A      0.753242  
      96A      0.766493    97A      0.792223    98A      0.809566  
      99A      0.837560   100A      0.872400   101A      0.903051  
     102A      0.935984   103A      0.949860   104A      0.968651  
     105A      0.984081   106A      1.011836   107A      1.019545  
     108A      1.039712   109A      1.077825   110A      1.101192  
     111A      1.113543   112A      1.124631   113A      1.159285  
     114A      1.188164   115A      1.212173   116A      1.236257  
     117A      1.246242   118A      1.253887   119A      1.276416  
     120A      1.296131   121A      1.303210   122A      1.312653  
     123A      1.320940   124A      1.336160   125A      1.345301  
     126A      1.375159   127A      1.401426   128A      1.439416  
     129A      1.489734   130A      1.533528   131A      1.575468  
     132A      1.593394   133A      1.604797   134A      1.647617  
     135A      1.677453   136A      1.688474   137A      1.720190  
     138A      1.738857   139A      1.754229   140A      1.768825  
     141A      1.778556   142A      1.801464   143A      1.816912  
     144A      1.832894   145A      1.860048   146A      1.899260  
     147A      1.917370   148A      1.966399   149A      1.983989  
     150A      2.014940   151A      2.038964   152A      2.059881  
     153A      2.077596   154A      2.118832   155A      2.170916  
     156A      2.193608   157A      2.275534   158A      2.280311  
     159A      2.313870   160A      2.351079   161A      2.427366  
     162A      2.443188   163A      2.517300   164A      2.550383  
     165A      2.593708   166A      2.626838   167A      2.645213  
     168A      2.764051   169A      2.847729   170A      2.881912  
     171A      2.909733   172A      2.971880   173A      3.080407  
     174A      3.099907   175A      3.117139   176A      3.200862  
     177A      3.992947   178A      4.122598   179A      4.204813  
     180A      4.223712   181A      4.346761   182A      4.421466  
     183A      4.516802   184A      4.542090   185A      4.639989  

    Final Occupation by Irrep:
              A 
    DOCC [    35 ]

  Energy converged.

  @DF-RKS Final Energy:  -512.28466221912242

   => Energetics <=

    Nuclear Repulsion Energy =            465.8833821312189230
    One-Electron Energy =               -1622.6529487943334971
    Two-Electron Energy =                 697.4448548841155571
    DFT Exchange-Correlation Energy =     -52.9599504401234498
    Empirical Dispersion Energy =           0.0000000000000000
    VV10 Nonlocal Energy =                  0.0000000000000000
    Total Energy =                       -512.2846622191224242



Properties will be evaluated at   0.000000,   0.000000,   0.000000 [a0]

Properties computed using the SCF density matrix

  Nuclear Dipole Moment: [e a0]
     X:     3.1141      Y:     4.8737      Z:    -2.3457

  Electronic Dipole Moment: [e a0]
     X:    -1.0241      Y:    -4.4437      Z:     1.7970

  Dipole Moment: [e a0]
     X:     2.0900      Y:     0.4300      Z:    -0.5487     Total:     2.2032

  Dipole Moment: [D]
     X:     5.3123      Y:     1.0929      Z:    -1.3946     Total:     5.6000


*** tstop() called on localhost.localdomain at Tue Feb 12 14:46:17 2019
Module time:
	user time   =     114.13 seconds =       1.90 minutes
	system time =       2.68 seconds =       0.04 minutes
	total time  =          9 seconds =       0.15 minutes
Total time:
	user time   =     267.50 seconds =       4.46 minutes
	system time =       7.31 seconds =       0.12 minutes
	total time  =         20 seconds =       0.33 minutes

*** tstart() called on localhost.localdomain
*** at Tue Feb 12 14:46:17 2019


         ------------------------------------------------------------
                                   SCF GRAD                          
                          Rob Parrish, Justin Turney,                
                       Andy Simmonett, and Alex Sokolov              
         ------------------------------------------------------------

  ==> Geometry <==

    Molecular point group: c1
    Full point group: C1

    Geometry (in Angstrom), charge = 0, multiplicity = 1:

       Center              X                  Y                   Z               Mass       
    ------------   -----------------  -----------------  -----------------  -----------------
         C           -2.005944847652    -0.199243965099     0.365183505295    12.000000000000
         O           -2.183184996460    -0.071488669307     1.548185209249    15.994914619560
         O           -2.717707693162    -0.146355828175    -0.710040895921    15.994914619560
         N           -0.624431438282    -0.450499112301    -0.303708507791    14.003074004780
         H           -1.535133585904    -0.277363973852    -1.217501756601     1.007825032070
         H           -0.339816838909    -1.431515038564    -0.212525194038     1.007825032070
         C            0.476693262955     0.432267313710     0.119582683348    12.000000000000
         H            0.379078883359     0.583384477365     1.206766014918     1.007825032070
         C            1.791338674645    -0.309112625115    -0.092790167878    12.000000000000
         O            1.875072127240    -1.488361697502    -0.367334073063    15.994914619560
         O            2.861521633710     0.485765070867     0.098356843599    15.994914619560
         H            3.662491973658    -0.062391202085    -0.009906218036     1.007825032070
         C            0.406678196367     1.791493630495    -0.585747190770    12.000000000000
         H           -0.560865016327     2.263313209275    -0.386711301271     1.007825032070
         H            1.194199391737     2.453054986836    -0.217361161949     1.007825032070
         H            0.520783847492     1.675170528696    -1.668822526507     1.007825032070

  Nuclear repulsion =  465.883382131218923

  ==> Basis Set <==

  Basis Set: 6-31+G*
    Blend: 6-31+G*
    Number of shells: 86
    Number of basis function: 185
    Number of Cartesian functions: 185
    Spherical Harmonics?: false
    Max angular momentum: 2

  ==> DFJKGrad: Density-Fitted SCF Gradients <==

    Gradient:                    1
    J tasked:                  Yes
    K tasked:                  Yes
    wK tasked:                  No
    OpenMP threads:             16
    Integrals threads:          16
    Memory (MB):               375
    Schwarz Cutoff:          0E+00
    Fitting Condition:       1E-12

   => Auxiliary Basis Set <=

  Basis Set: (6-31+G* AUX)
    Blend: HEAVY-AUG-CC-PVDZ-JKFIT
    Number of shells: 315
    Number of basis function: 1084
    Number of Cartesian functions: 1084
    Spherical Harmonics?: false
    Max angular momentum: 3

  ==> DFT Potential <==

   => Composite Functional: B3LYP <= 

    B3LYP Hyb-GGA Exchange-Correlation Functional

    P. J. Stephens, F. J. Devlin, C. F. Chabalowski, and M. J. Frisch, J. Phys. Chem. 98, 11623 (1994)

    Deriv               =              1
    GGA                 =           TRUE
    Meta                =          FALSE

    Exchange Hybrid     =           TRUE
    MP2 Hybrid          =          FALSE

   => Exchange Functionals <=

    0.0800   Slater exchange
    0.7200         Becke 88

   => Exact (HF) Exchange <=

    0.2000               HF 

   => Correlation Functionals <=

    0.1900   Vosko, Wilk & Nusair (VWN5_RPA)
    0.8100   Lee, Yang & Parr

   => Molecular Quadrature <=

    Radial Scheme       =       TREUTLER
    Pruning Scheme      =           FLAT
    Nuclear Scheme      =       TREUTLER

    BS radius alpha     =              1
    Pruning alpha       =              1
    Radial Points       =             75
    Spherical Points    =            302
    Total Points        =         362400
    Total Blocks        =           2725
    Max Points          =            256
    Max Functions       =            178


  -Total Gradient:
     Atom            X                  Y                   Z
    ------   -----------------  -----------------  -----------------
       1       -0.000641591063     0.000019977094    -0.000043996310
       2        0.000191431982     0.000004128924    -0.000121125746
       3        0.000449402717    -0.000035393306     0.000276883150
       4        0.000078090414    -0.000074480008    -0.000028297833
       5       -0.000072109308     0.000025580673    -0.000055639607
       6       -0.000025788972     0.000011118822    -0.000010590263
       7        0.000024401186     0.000062521294     0.000083140811
       8       -0.000008635157    -0.000000132282    -0.000011343648
       9       -0.000110951276    -0.000050590802    -0.000000553634
      10        0.000073691674     0.000067915045     0.000002212277
      11        0.000025565297    -0.000031946588    -0.000059833262
      12        0.000039704835     0.000009803495     0.000027431956
      13        0.000021420644     0.000019189208    -0.000014828361
      14       -0.000008867684    -0.000003269446    -0.000001988888
      15       -0.000013515069     0.000002160754     0.000005887925
      16        0.000004748178    -0.000003503820     0.000003919963


*** tstop() called on localhost.localdomain at Tue Feb 12 14:46:20 2019
Module time:
	user time   =      42.73 seconds =       0.71 minutes
	system time =       1.54 seconds =       0.03 minutes
	total time  =          3 seconds =       0.05 minutes
Total time:
	user time   =     310.26 seconds =       5.17 minutes
	system time =       8.85 seconds =       0.15 minutes
	total time  =         23 seconds =       0.38 minutes

  //>>>>>>>>>>>>>>>>>>>>>>>>>>>>>>>>>>>//
  //    Loading displacement 2 of 85   //
  //<<<<<<<<<<<<<<<<<<<<<<<<<<<<<<<<<<<//
gradient() will perform analytic gradient computation.

*** tstart() called on localhost.localdomain
*** at Tue Feb 12 14:46:20 2019

   => Loading Basis Set <=

    Name: 6-31+G*
    Role: ORBITAL
    Keyword: BASIS
    atoms 1, 7, 9, 13       entry C          line   119 file /root/psi4conda/share/psi4/basis/6-31pgs.gbs 
    atoms 2-3, 10-11        entry O          line   157 file /root/psi4conda/share/psi4/basis/6-31pgs.gbs 
    atoms 4                 entry N          line   138 file /root/psi4conda/share/psi4/basis/6-31pgs.gbs 
    atoms 5-6, 8, 12, 14-16 entry H          line    46 file /root/psi4conda/share/psi4/basis/6-31pgs.gbs 


         ---------------------------------------------------------
                                   SCF
            by Justin Turney, Rob Parrish, Andy Simmonett
                             and Daniel Smith
                              RKS Reference
                       16 Threads,    500 MiB Core
         ---------------------------------------------------------

  ==> Geometry <==

    Molecular point group: c1
    Full point group: C1

    Geometry (in Angstrom), charge = 0, multiplicity = 1:

       Center              X                  Y                   Z               Mass       
    ------------   -----------------  -----------------  -----------------  -----------------
         C           -2.004490691534    -0.199231570886     0.365158122459    12.000000000000
         O           -2.183349606986    -0.071476630607     1.548157756651    15.994914619560
         O           -2.717844482060    -0.146337504755    -0.710075142073    15.994914619560
         N           -0.624575269806    -0.450494723993    -0.303716904573    14.003074004780
         H           -1.535264855034    -0.277352590278    -1.217521347717     1.007825032070
         H           -0.339968102947    -1.431512590414    -0.212531265348     1.007825032070
         C            0.476549786152     0.432264106546     0.119589203706    12.000000000000
         H            0.378922750143     0.583380520281     1.206771503064     1.007825032070
         C            1.791193106003    -0.309123992295    -0.092768109742    12.000000000000
         O            1.874922438682    -1.488373254090    -0.367312457869    15.994914619560
         O            2.861378765684     0.485746600363     0.098393319885    15.994914619560
         H            3.662346947912    -0.062414670955    -0.009860397162     1.007825032070
         C            0.406552273815     1.791491764755    -0.585739827700    12.000000000000
         H           -0.560990408193     2.263317295007    -0.386715467001     1.007825032070
         H            1.194073093805     2.453047605760    -0.217343091957     1.007825032070
         H            0.520670752947     1.675169301944    -1.668813880513     1.007825032070

  Running in c1 symmetry.

  Rotational constants: A =      0.10537  B =      0.03019  C =      0.02801 [cm^-1]
  Rotational constants: A =   3158.94109  B =    905.10527  C =    839.82206 [MHz]
  Nuclear repulsion =  465.894279978737302

  Charge       = 0
  Multiplicity = 1
  Electrons    = 70
  Nalpha       = 35
  Nbeta        = 35

  ==> Algorithm <==

  SCF Algorithm Type is DF.
  DIIS enabled.
  MOM disabled.
  Fractional occupation disabled.
  Guess Type is SAD.
  Energy threshold   = 1.00e-08
  Density threshold  = 1.00e-08
  Integral threshold = 0.00e+00

  ==> Primary Basis <==

  Basis Set: 6-31+G*
    Blend: 6-31+G*
    Number of shells: 86
    Number of basis function: 185
    Number of Cartesian functions: 185
    Spherical Harmonics?: false
    Max angular momentum: 2

  ==> DFT Potential <==

   => Composite Functional: B3LYP <= 

    B3LYP Hyb-GGA Exchange-Correlation Functional

    P. J. Stephens, F. J. Devlin, C. F. Chabalowski, and M. J. Frisch, J. Phys. Chem. 98, 11623 (1994)

    Deriv               =              1
    GGA                 =           TRUE
    Meta                =          FALSE

    Exchange Hybrid     =           TRUE
    MP2 Hybrid          =          FALSE

   => Exchange Functionals <=

    0.0800   Slater exchange
    0.7200         Becke 88

   => Exact (HF) Exchange <=

    0.2000               HF 

   => Correlation Functionals <=

    0.1900   Vosko, Wilk & Nusair (VWN5_RPA)
    0.8100   Lee, Yang & Parr

   => Molecular Quadrature <=

    Radial Scheme       =       TREUTLER
    Pruning Scheme      =           FLAT
    Nuclear Scheme      =       TREUTLER

    BS radius alpha     =              1
    Pruning alpha       =              1
    Radial Points       =             75
    Spherical Points    =            302
    Total Points        =         362400
    Total Blocks        =           2727
    Max Points          =            256
    Max Functions       =            178

   => Loading Basis Set <=

    Name: (6-31+G* AUX)
    Role: JKFIT
    Keyword: DF_BASIS_SCF
    atoms 1, 7, 9, 13       entry C          line   194 file /root/psi4conda/share/psi4/basis/heavy-aug-cc-pvdz-jkfit.gbs 
    atoms 2-3, 10-11        entry O          line   310 file /root/psi4conda/share/psi4/basis/heavy-aug-cc-pvdz-jkfit.gbs 
    atoms 4                 entry N          line   252 file /root/psi4conda/share/psi4/basis/heavy-aug-cc-pvdz-jkfit.gbs 
    atoms 5-6, 8, 12, 14-16 entry H          line   116 file /root/psi4conda/share/psi4/basis/heavy-aug-cc-pvdz-jkfit.gbs 

  ==> Pre-Iterations <==

   -------------------------------------------------------
    Irrep   Nso     Nmo     Nalpha   Nbeta   Ndocc  Nsocc
   -------------------------------------------------------
     A        185     185       0       0       0       0
   -------------------------------------------------------
    Total     185     185      35      35      35       0
   -------------------------------------------------------

  ==> Integral Setup <==

  ==> DiskDFJK: Density-Fitted J/K Matrices <==

    J tasked:                  Yes
    K tasked:                  Yes
    wK tasked:                  No
    OpenMP threads:             16
    Integrals threads:          16
    Memory (MB):               375
    Algorithm:                Core
    Integral Cache:           NONE
    Schwarz Cutoff:          1E-12
    Fitting Condition:       1E-12

   => Auxiliary Basis Set <=

  Basis Set: (6-31+G* AUX)
    Blend: HEAVY-AUG-CC-PVDZ-JKFIT
    Number of shells: 315
    Number of basis function: 1084
    Number of Cartesian functions: 1084
    Spherical Harmonics?: false
    Max angular momentum: 3

  Minimum eigenvalue in the overlap matrix is 4.0191592828E-05.
  Using Symmetric Orthogonalization.

  SCF Guess: Superposition of Atomic Densities via on-the-fly atomic UHF.

  ==> Iterations <==

                           Total Energy        Delta E     RMS |[F,P]|

   @DF-RKS iter   0:  -514.08784352550038   -5.14088e+02   1.05425e-01 
   @DF-RKS iter   1:  -512.05125637408207    2.03659e+00   1.61242e-02 
   @DF-RKS iter   2:  -511.72893756326562    3.22319e-01   2.11483e-02 DIIS
   @DF-RKS iter   3:  -512.26657694578455   -5.37639e-01   4.40298e-03 DIIS
   @DF-RKS iter   4:  -512.28273852582186   -1.61616e-02   1.36092e-03 DIIS
   @DF-RKS iter   5:  -512.28431478393577   -1.57626e-03   6.26914e-04 DIIS
   @DF-RKS iter   6:  -512.28462406888866   -3.09285e-04   2.05283e-04 DIIS
   @DF-RKS iter   7:  -512.28465922002647   -3.51511e-05   6.14344e-05 DIIS
   @DF-RKS iter   8:  -512.28466244659126   -3.22656e-06   1.40796e-05 DIIS
   @DF-RKS iter   9:  -512.28466263129496   -1.84704e-07   7.27684e-06 DIIS
   @DF-RKS iter  10:  -512.28466266957071   -3.82757e-08   2.52162e-06 DIIS
   @DF-RKS iter  11:  -512.28466267670910   -7.13840e-09   6.58024e-07 DIIS
   @DF-RKS iter  12:  -512.28466267701560   -3.06500e-10   2.36934e-07 DIIS
   @DF-RKS iter  13:  -512.28466267706847   -5.28644e-11   5.36069e-08 DIIS
   @DF-RKS iter  14:  -512.28466267707040   -1.93268e-12   3.35463e-08 DIIS
   @DF-RKS iter  15:  -512.28466267707074   -3.41061e-13   3.10115e-09 DIIS

  ==> Post-Iterations <==

    Orbital Energies [Eh]
    ---------------------

    Doubly Occupied:                                                      

       1A    -19.248805     2A    -19.194478     3A    -19.173154  
       4A    -19.162433     5A    -14.410414     6A    -10.371049  
       7A    -10.355552     8A    -10.285050     9A    -10.220741  
      10A     -1.157390    11A     -1.112583    12A     -1.068622  
      13A     -1.036608    14A     -0.952691    15A     -0.806582  
      16A     -0.713302    17A     -0.651950    18A     -0.601839  
      19A     -0.553856    20A     -0.537089    21A     -0.534623  
      22A     -0.525439    23A     -0.485880    24A     -0.472892  
      25A     -0.458360    26A     -0.442292    27A     -0.439160  
      28A     -0.427187    29A     -0.408787    30A     -0.391747  
      31A     -0.368862    32A     -0.327848    33A     -0.318406  
      34A     -0.316736    35A     -0.290077  

    Virtual:                                                              

      36A     -0.044903    37A     -0.023377    38A      0.000333  
      39A      0.006958    40A      0.014581    41A      0.019393  
      42A      0.042576    43A      0.048040    44A      0.056576  
      45A      0.059086    46A      0.069803    47A      0.078961  
      48A      0.090134    49A      0.094437    50A      0.100081  
      51A      0.110732    52A      0.111322    53A      0.124420  
      54A      0.133340    55A      0.141902    56A      0.149499  
      57A      0.163297    58A      0.172810    59A      0.174426  
      60A      0.188378    61A      0.197875    62A      0.199461  
      63A      0.216854    64A      0.224465    65A      0.233420  
      66A      0.239740    67A      0.244773    68A      0.253601  
      69A      0.264843    70A      0.272468    71A      0.276061  
      72A      0.285302    73A      0.293038    74A      0.297886  
      75A      0.301739    76A      0.304533    77A      0.316932  
      78A      0.329465    79A      0.334139    80A      0.340452  
      81A      0.344691    82A      0.357457    83A      0.361776  
      84A      0.390403    85A      0.414230    86A      0.425394  
      87A      0.479299    88A      0.545303    89A      0.622167  
      90A      0.629479    91A      0.654215    92A      0.678501  
      93A      0.703317    94A      0.729346    95A      0.753143  
      96A      0.766454    97A      0.792127    98A      0.809490  
      99A      0.837498   100A      0.872518   101A      0.903051  
     102A      0.936031   103A      0.949836   104A      0.968596  
     105A      0.984007   106A      1.011836   107A      1.019488  
     108A      1.039571   109A      1.077741   110A      1.101103  
     111A      1.113479   112A      1.124572   113A      1.159266  
     114A      1.188219   115A      1.212021   116A      1.236242  
     117A      1.246334   118A      1.253859   119A      1.276460  
     120A      1.296253   121A      1.303196   122A      1.312604  
     123A      1.320856   124A      1.336121   125A      1.345322  
     126A      1.375106   127A      1.401371   128A      1.439465  
     129A      1.489838   130A      1.533457   131A      1.575407  
     132A      1.593466   133A      1.605198   134A      1.647625  
     135A      1.677581   136A      1.688559   137A      1.720744  
     138A      1.738810   139A      1.754542   140A      1.768816  
     141A      1.778554   142A      1.801594   143A      1.816925  
     144A      1.832866   145A      1.859883   146A      1.899133  
     147A      1.917211   148A      1.966413   149A      1.983774  
     150A      2.014844   151A      2.038650   152A      2.059807  
     153A      2.077567   154A      2.118732   155A      2.170561  
     156A      2.193429   157A      2.275492   158A      2.280230  
     159A      2.313777   160A      2.351474   161A      2.427608  
     162A      2.443112   163A      2.517229   164A      2.550242  
     165A      2.593259   166A      2.626696   167A      2.645222  
     168A      2.763271   169A      2.847578   170A      2.881507  
     171A      2.909541   172A      2.971661   173A      3.080288  
     174A      3.099715   175A      3.117161   176A      3.199951  
     177A      3.993137   178A      4.122634   179A      4.204754  
     180A      4.223723   181A      4.346696   182A      4.421215  
     183A      4.516823   184A      4.541362   185A      4.639795  

    Final Occupation by Irrep:
              A 
    DOCC [    35 ]

  Energy converged.

  @DF-RKS Final Energy:  -512.28466267707074

   => Energetics <=

    Nuclear Repulsion Energy =            465.8942799787373019
    One-Electron Energy =               -1622.6727848816544792
    Two-Electron Energy =                 697.4535558308374448
    DFT Exchange-Correlation Energy =     -52.9597136049910091
    Empirical Dispersion Energy =           0.0000000000000000
    VV10 Nonlocal Energy =                  0.0000000000000000
    Total Energy =                       -512.2846626770706280



Properties will be evaluated at   0.000000,   0.000000,   0.000000 [a0]

Properties computed using the SCF density matrix

  Nuclear Dipole Moment: [e a0]
     X:     3.1132      Y:     4.8737      Z:    -2.3457

  Electronic Dipole Moment: [e a0]
     X:    -1.0185      Y:    -4.4439      Z:     1.7968

  Dipole Moment: [e a0]
     X:     2.0948      Y:     0.4298      Z:    -0.5489     Total:     2.2077

  Dipole Moment: [D]
     X:     5.3244      Y:     1.0924      Z:    -1.3952     Total:     5.6115


*** tstop() called on localhost.localdomain at Tue Feb 12 14:46:29 2019
Module time:
	user time   =     117.25 seconds =       1.95 minutes
	system time =       2.49 seconds =       0.04 minutes
	total time  =          9 seconds =       0.15 minutes
Total time:
	user time   =     427.77 seconds =       7.13 minutes
	system time =      11.36 seconds =       0.19 minutes
	total time  =         32 seconds =       0.53 minutes

*** tstart() called on localhost.localdomain
*** at Tue Feb 12 14:46:29 2019


         ------------------------------------------------------------
                                   SCF GRAD                          
                          Rob Parrish, Justin Turney,                
                       Andy Simmonett, and Alex Sokolov              
         ------------------------------------------------------------

  ==> Geometry <==

    Molecular point group: c1
    Full point group: C1

    Geometry (in Angstrom), charge = 0, multiplicity = 1:

       Center              X                  Y                   Z               Mass       
    ------------   -----------------  -----------------  -----------------  -----------------
         C           -2.004490691534    -0.199231570886     0.365158122459    12.000000000000
         O           -2.183349606986    -0.071476630607     1.548157756651    15.994914619560
         O           -2.717844482060    -0.146337504755    -0.710075142073    15.994914619560
         N           -0.624575269806    -0.450494723993    -0.303716904573    14.003074004780
         H           -1.535264855034    -0.277352590278    -1.217521347717     1.007825032070
         H           -0.339968102947    -1.431512590414    -0.212531265348     1.007825032070
         C            0.476549786152     0.432264106546     0.119589203706    12.000000000000
         H            0.378922750143     0.583380520281     1.206771503064     1.007825032070
         C            1.791193106003    -0.309123992295    -0.092768109742    12.000000000000
         O            1.874922438682    -1.488373254090    -0.367312457869    15.994914619560
         O            2.861378765684     0.485746600363     0.098393319885    15.994914619560
         H            3.662346947912    -0.062414670955    -0.009860397162     1.007825032070
         C            0.406552273815     1.791491764755    -0.585739827700    12.000000000000
         H           -0.560990408193     2.263317295007    -0.386715467001     1.007825032070
         H            1.194073093805     2.453047605760    -0.217343091957     1.007825032070
         H            0.520670752947     1.675169301944    -1.668813880513     1.007825032070

  Nuclear repulsion =  465.894279978737302

  ==> Basis Set <==

  Basis Set: 6-31+G*
    Blend: 6-31+G*
    Number of shells: 86
    Number of basis function: 185
    Number of Cartesian functions: 185
    Spherical Harmonics?: false
    Max angular momentum: 2

  ==> DFJKGrad: Density-Fitted SCF Gradients <==

    Gradient:                    1
    J tasked:                  Yes
    K tasked:                  Yes
    wK tasked:                  No
    OpenMP threads:             16
    Integrals threads:          16
    Memory (MB):               375
    Schwarz Cutoff:          0E+00
    Fitting Condition:       1E-12

   => Auxiliary Basis Set <=

  Basis Set: (6-31+G* AUX)
    Blend: HEAVY-AUG-CC-PVDZ-JKFIT
    Number of shells: 315
    Number of basis function: 1084
    Number of Cartesian functions: 1084
    Spherical Harmonics?: false
    Max angular momentum: 3

  ==> DFT Potential <==

   => Composite Functional: B3LYP <= 

    B3LYP Hyb-GGA Exchange-Correlation Functional

    P. J. Stephens, F. J. Devlin, C. F. Chabalowski, and M. J. Frisch, J. Phys. Chem. 98, 11623 (1994)

    Deriv               =              1
    GGA                 =           TRUE
    Meta                =          FALSE

    Exchange Hybrid     =           TRUE
    MP2 Hybrid          =          FALSE

   => Exchange Functionals <=

    0.0800   Slater exchange
    0.7200         Becke 88

   => Exact (HF) Exchange <=

    0.2000               HF 

   => Correlation Functionals <=

    0.1900   Vosko, Wilk & Nusair (VWN5_RPA)
    0.8100   Lee, Yang & Parr

   => Molecular Quadrature <=

    Radial Scheme       =       TREUTLER
    Pruning Scheme      =           FLAT
    Nuclear Scheme      =       TREUTLER

    BS radius alpha     =              1
    Pruning alpha       =              1
    Radial Points       =             75
    Spherical Points    =            302
    Total Points        =         362400
    Total Blocks        =           2727
    Max Points          =            256
    Max Functions       =            178


  -Total Gradient:
     Atom            X                  Y                   Z
    ------   -----------------  -----------------  -----------------
       1        0.000379304863    -0.000028401582     0.000065685645
       2       -0.000134818852     0.000043955255     0.000171717103
       3       -0.000289237107     0.000011067905    -0.000108360563
       4       -0.000124992295    -0.000060000798    -0.000166066494
       5        0.000235209707    -0.000002278857     0.000081749293
       6       -0.000032374376     0.000024411120    -0.000009056079
       7       -0.000056693171     0.000017535703     0.000047570263
       8       -0.000013080597    -0.000000122564    -0.000004242619
       9       -0.000120422687    -0.000050888601     0.000002626933
      10        0.000090949031     0.000068319890     0.000002804720
      11        0.000042315728    -0.000028358391    -0.000058192432
      12        0.000039663352     0.000009929196     0.000027176767
      13        0.000028522269     0.000018345627    -0.000007645499
      14       -0.000009399375    -0.000003486378    -0.000000984424
      15       -0.000013056397     0.000006982190     0.000004076504
      16        0.000005125173    -0.000004156008     0.000003473162


*** tstop() called on localhost.localdomain at Tue Feb 12 14:46:33 2019
Module time:
	user time   =      45.94 seconds =       0.77 minutes
	system time =       1.83 seconds =       0.03 minutes
	total time  =          4 seconds =       0.07 minutes
Total time:
	user time   =     473.74 seconds =       7.90 minutes
	system time =      13.19 seconds =       0.22 minutes
	total time  =         36 seconds =       0.60 minutes

  //>>>>>>>>>>>>>>>>>>>>>>>>>>>>>>>>>>>//
  //    Loading displacement 3 of 85   //
  //<<<<<<<<<<<<<<<<<<<<<<<<<<<<<<<<<<<//
gradient() will perform analytic gradient computation.

*** tstart() called on localhost.localdomain
*** at Tue Feb 12 14:46:33 2019

   => Loading Basis Set <=

    Name: 6-31+G*
    Role: ORBITAL
    Keyword: BASIS
    atoms 1, 7, 9, 13       entry C          line   119 file /root/psi4conda/share/psi4/basis/6-31pgs.gbs 
    atoms 2-3, 10-11        entry O          line   157 file /root/psi4conda/share/psi4/basis/6-31pgs.gbs 
    atoms 4                 entry N          line   138 file /root/psi4conda/share/psi4/basis/6-31pgs.gbs 
    atoms 5-6, 8, 12, 14-16 entry H          line    46 file /root/psi4conda/share/psi4/basis/6-31pgs.gbs 


         ---------------------------------------------------------
                                   SCF
            by Justin Turney, Rob Parrish, Andy Simmonett
                             and Daniel Smith
                              RKS Reference
                       16 Threads,    500 MiB Core
         ---------------------------------------------------------

  ==> Geometry <==

    Molecular point group: c1
    Full point group: C1

    Geometry (in Angstrom), charge = 0, multiplicity = 1:

       Center              X                  Y                   Z               Mass       
    ------------   -----------------  -----------------  -----------------  -----------------
         C           -2.005217769593    -0.199931485852     0.365173956247    12.000000000000
         O           -2.183270149180    -0.071312050413     1.548172753726    15.994914619560
         O           -2.717781620036    -0.146191866884    -0.710055588911    15.994914619560
         N           -0.624518856432    -0.450405000998    -0.303705983823    14.003074004780
         H           -1.535209114256    -0.277249905140    -1.217507300702     1.007825032070
         H           -0.339940250209    -1.431429915761    -0.212507029556     1.007825032070
         C            0.476635115837     0.432327647671     0.119579505223    12.000000000000
         H            0.379019487843     0.583463724575     1.206760095783     1.007825032070
         C            1.791255061443    -0.309102776955    -0.092774743502    12.000000000000
         O            1.874947617435    -1.488358759197    -0.367301441578    15.994914619560
         O            2.861465549294     0.485738973464     0.098367618966    15.994914619560
         H            3.662416759564    -0.062447759769    -0.009882743552     1.007825032070
         C            0.406673490232     1.791546509873    -0.585770038677    12.000000000000
         H           -0.560853909680     2.263403849703    -0.386746795354     1.007825032070
         H            1.194216306257     2.453084637944    -0.217388515548     1.007825032070
         H            0.520781621045     1.675203957364    -1.668843024138     1.007825032070

  Running in c1 symmetry.

  Rotational constants: A =      0.10537  B =      0.03019  C =      0.02801 [cm^-1]
  Rotational constants: A =   3158.87562  B =    905.04304  C =    839.76223 [MHz]
  Nuclear repulsion =  465.886627584929386

  Charge       = 0
  Multiplicity = 1
  Electrons    = 70
  Nalpha       = 35
  Nbeta        = 35

  ==> Algorithm <==

  SCF Algorithm Type is DF.
  DIIS enabled.
  MOM disabled.
  Fractional occupation disabled.
  Guess Type is SAD.
  Energy threshold   = 1.00e-08
  Density threshold  = 1.00e-08
  Integral threshold = 0.00e+00

  ==> Primary Basis <==

  Basis Set: 6-31+G*
    Blend: 6-31+G*
    Number of shells: 86
    Number of basis function: 185
    Number of Cartesian functions: 185
    Spherical Harmonics?: false
    Max angular momentum: 2

  ==> DFT Potential <==

   => Composite Functional: B3LYP <= 

    B3LYP Hyb-GGA Exchange-Correlation Functional

    P. J. Stephens, F. J. Devlin, C. F. Chabalowski, and M. J. Frisch, J. Phys. Chem. 98, 11623 (1994)

    Deriv               =              1
    GGA                 =           TRUE
    Meta                =          FALSE

    Exchange Hybrid     =           TRUE
    MP2 Hybrid          =          FALSE

   => Exchange Functionals <=

    0.0800   Slater exchange
    0.7200         Becke 88

   => Exact (HF) Exchange <=

    0.2000               HF 

   => Correlation Functionals <=

    0.1900   Vosko, Wilk & Nusair (VWN5_RPA)
    0.8100   Lee, Yang & Parr

   => Molecular Quadrature <=

    Radial Scheme       =       TREUTLER
    Pruning Scheme      =           FLAT
    Nuclear Scheme      =       TREUTLER

    BS radius alpha     =              1
    Pruning alpha       =              1
    Radial Points       =             75
    Spherical Points    =            302
    Total Points        =         362400
    Total Blocks        =           2723
    Max Points          =            256
    Max Functions       =            178

   => Loading Basis Set <=

    Name: (6-31+G* AUX)
    Role: JKFIT
    Keyword: DF_BASIS_SCF
    atoms 1, 7, 9, 13       entry C          line   194 file /root/psi4conda/share/psi4/basis/heavy-aug-cc-pvdz-jkfit.gbs 
    atoms 2-3, 10-11        entry O          line   310 file /root/psi4conda/share/psi4/basis/heavy-aug-cc-pvdz-jkfit.gbs 
    atoms 4                 entry N          line   252 file /root/psi4conda/share/psi4/basis/heavy-aug-cc-pvdz-jkfit.gbs 
    atoms 5-6, 8, 12, 14-16 entry H          line   116 file /root/psi4conda/share/psi4/basis/heavy-aug-cc-pvdz-jkfit.gbs 

  ==> Pre-Iterations <==

   -------------------------------------------------------
    Irrep   Nso     Nmo     Nalpha   Nbeta   Ndocc  Nsocc
   -------------------------------------------------------
     A        185     185       0       0       0       0
   -------------------------------------------------------
    Total     185     185      35      35      35       0
   -------------------------------------------------------

  ==> Integral Setup <==

  ==> DiskDFJK: Density-Fitted J/K Matrices <==

    J tasked:                  Yes
    K tasked:                  Yes
    wK tasked:                  No
    OpenMP threads:             16
    Integrals threads:          16
    Memory (MB):               375
    Algorithm:                Core
    Integral Cache:           NONE
    Schwarz Cutoff:          1E-12
    Fitting Condition:       1E-12

   => Auxiliary Basis Set <=

  Basis Set: (6-31+G* AUX)
    Blend: HEAVY-AUG-CC-PVDZ-JKFIT
    Number of shells: 315
    Number of basis function: 1084
    Number of Cartesian functions: 1084
    Spherical Harmonics?: false
    Max angular momentum: 3

  Minimum eigenvalue in the overlap matrix is 4.0198877466E-05.
  Using Symmetric Orthogonalization.

  SCF Guess: Superposition of Atomic Densities via on-the-fly atomic UHF.

  ==> Iterations <==

                           Total Energy        Delta E     RMS |[F,P]|

   @DF-RKS iter   0:  -514.01321536212231   -5.14013e+02   1.05812e-01 
   @DF-RKS iter   1:  -511.94558098668210    2.06763e+00   2.05108e-02 
   @DF-RKS iter   2:  -510.94469525849826    1.00089e+00   3.07303e-02 DIIS
   @DF-RKS iter   3:  -512.25388335890545   -1.30919e+00   5.89697e-03 DIIS
   @DF-RKS iter   4:  -512.27903412628120   -2.51508e-02   2.47308e-03 DIIS
   @DF-RKS iter   5:  -512.28354657523892   -4.51245e-03   1.11279e-03 DIIS
   @DF-RKS iter   6:  -512.28458936900938   -1.04279e-03   2.84921e-04 DIIS
   @DF-RKS iter   7:  -512.28465482374941   -6.54547e-05   9.11510e-05 DIIS
   @DF-RKS iter   8:  -512.28466158925175   -6.76550e-06   2.80663e-05 DIIS
   @DF-RKS iter   9:  -512.28466237261705   -7.83365e-07   1.27835e-05 DIIS
   @DF-RKS iter  10:  -512.28466250915710   -1.36540e-07   3.29174e-06 DIIS
   @DF-RKS iter  11:  -512.28466251817088   -9.01377e-09   9.70662e-07 DIIS
   @DF-RKS iter  12:  -512.28466251890472   -7.33849e-10   3.29640e-07 DIIS
   @DF-RKS iter  13:  -512.28466251900829   -1.03569e-10   6.21819e-08 DIIS
   @DF-RKS iter  14:  -512.28466251901432   -6.02540e-12   1.94488e-08 DIIS
   @DF-RKS iter  15:  -512.28466251901443   -1.13687e-13   5.25444e-09 DIIS

  ==> Post-Iterations <==

    Orbital Energies [Eh]
    ---------------------

    Doubly Occupied:                                                      

       1A    -19.248779     2A    -19.194444     3A    -19.173217  
       4A    -19.162438     5A    -14.410319     6A    -10.371016  
       7A    -10.355563     8A    -10.285015     9A    -10.220713  
      10A     -1.157362    11A     -1.112667    12A     -1.068591  
      13A     -1.036712    14A     -0.952612    15A     -0.806527  
      16A     -0.713265    17A     -0.651906    18A     -0.601691  
      19A     -0.553840    20A     -0.537100    21A     -0.534628  
      22A     -0.525427    23A     -0.485851    24A     -0.472877  
      25A     -0.458382    26A     -0.442328    27A     -0.439150  
      28A     -0.427159    29A     -0.408773    30A     -0.391715  
      31A     -0.368833    32A     -0.327815    33A     -0.318402  
      34A     -0.316801    35A     -0.290084  

    Virtual:                                                              

      36A     -0.044874    37A     -0.023347    38A      0.000287  
      39A      0.007076    40A      0.014593    41A      0.019409  
      42A      0.042587    43A      0.048055    44A      0.056584  
      45A      0.059076    46A      0.069796    47A      0.078923  
      48A      0.090120    49A      0.094432    50A      0.100088  
      51A      0.110736    52A      0.111329    53A      0.124399  
      54A      0.133343    55A      0.141915    56A      0.149529  
      57A      0.163303    58A      0.172820    59A      0.174436  
      60A      0.188385    61A      0.197856    62A      0.199453  
      63A      0.216852    64A      0.224467    65A      0.233425  
      66A      0.239752    67A      0.244764    68A      0.253629  
      69A      0.264846    70A      0.272473    71A      0.276036  
      72A      0.285290    73A      0.293042    74A      0.297915  
      75A      0.301754    76A      0.304549    77A      0.316921  
      78A      0.329471    79A      0.334161    80A      0.340446  
      81A      0.344709    82A      0.357457    83A      0.361779  
      84A      0.390421    85A      0.414246    86A      0.425440  
      87A      0.479337    88A      0.545582    89A      0.622159  
      90A      0.629503    91A      0.654207    92A      0.678536  
      93A      0.703329    94A      0.729441    95A      0.753172  
      96A      0.766475    97A      0.792158    98A      0.809610  
      99A      0.837586   100A      0.872371   101A      0.903212  
     102A      0.935858   103A      0.949846   104A      0.968611  
     105A      0.984038   106A      1.011817   107A      1.019495  
     108A      1.039631   109A      1.077755   110A      1.101107  
     111A      1.113522   112A      1.124597   113A      1.159300  
     114A      1.188232   115A      1.212086   116A      1.236268  
     117A      1.246220   118A      1.253884   119A      1.276415  
     120A      1.296190   121A      1.303192   122A      1.312659  
     123A      1.320902   124A      1.336119   125A      1.345277  
     126A      1.375092   127A      1.401350   128A      1.439405  
     129A      1.489923   130A      1.533483   131A      1.575448  
     132A      1.593408   133A      1.605038   134A      1.647555  
     135A      1.677578   136A      1.688510   137A      1.720573  
     138A      1.738788   139A      1.754500   140A      1.768821  
     141A      1.778556   142A      1.801559   143A      1.816877  
     144A      1.832860   145A      1.860016   146A      1.899200  
     147A      1.917190   148A      1.966399   149A      1.983849  
     150A      2.014835   151A      2.038753   152A      2.059785  
     153A      2.077576   154A      2.118820   155A      2.170697  
     156A      2.193391   157A      2.275492   158A      2.280270  
     159A      2.313816   160A      2.351261   161A      2.427403  
     162A      2.443168   163A      2.517251   164A      2.550298  
     165A      2.593412   166A      2.626764   167A      2.645206  
     168A      2.763494   169A      2.847629   170A      2.881651  
     171A      2.909647   172A      2.971705   173A      3.080204  
     174A      3.099806   175A      3.117068   176A      3.200257  
     177A      3.993067   178A      4.122612   179A      4.204782  
     180A      4.223769   181A      4.346705   182A      4.421336  
     183A      4.516756   184A      4.541458   185A      4.639508  

    Final Occupation by Irrep:
              A 
    DOCC [    35 ]

  Energy converged.

  @DF-RKS Final Energy:  -512.28466251901443

   => Energetics <=

    Nuclear Repulsion Energy =            465.8866275849293856
    One-Electron Energy =               -1622.6583994487837117
    Two-Electron Energy =                 697.4468936770515484
    DFT Exchange-Correlation Energy =     -52.9597843322116191
    Empirical Dispersion Energy =           0.0000000000000000
    VV10 Nonlocal Energy =                  0.0000000000000000
    Total Energy =                       -512.2846625190144323



Properties will be evaluated at   0.000000,   0.000000,   0.000000 [a0]

Properties computed using the SCF density matrix

  Nuclear Dipole Moment: [e a0]
     X:     3.1138      Y:     4.8741      Z:    -2.3458

  Electronic Dipole Moment: [e a0]
     X:    -1.0210      Y:    -4.4447      Z:     1.7968

  Dipole Moment: [e a0]
     X:     2.0929      Y:     0.4294      Z:    -0.5490     Total:     2.2059

  Dipole Moment: [D]
     X:     5.3195      Y:     1.0914      Z:    -1.3955     Total:     5.6067


*** tstop() called on localhost.localdomain at Tue Feb 12 14:46:42 2019
Module time:
	user time   =     115.44 seconds =       1.92 minutes
	system time =       2.39 seconds =       0.04 minutes
	total time  =          9 seconds =       0.15 minutes
Total time:
	user time   =     589.55 seconds =       9.83 minutes
	system time =      15.62 seconds =       0.26 minutes
	total time  =         45 seconds =       0.75 minutes

*** tstart() called on localhost.localdomain
*** at Tue Feb 12 14:46:42 2019


         ------------------------------------------------------------
                                   SCF GRAD                          
                          Rob Parrish, Justin Turney,                
                       Andy Simmonett, and Alex Sokolov              
         ------------------------------------------------------------

  ==> Geometry <==

    Molecular point group: c1
    Full point group: C1

    Geometry (in Angstrom), charge = 0, multiplicity = 1:

       Center              X                  Y                   Z               Mass       
    ------------   -----------------  -----------------  -----------------  -----------------
         C           -2.005217769593    -0.199931485852     0.365173956247    12.000000000000
         O           -2.183270149180    -0.071312050413     1.548172753726    15.994914619560
         O           -2.717781620036    -0.146191866884    -0.710055588911    15.994914619560
         N           -0.624518856432    -0.450405000998    -0.303705983823    14.003074004780
         H           -1.535209114256    -0.277249905140    -1.217507300702     1.007825032070
         H           -0.339940250209    -1.431429915761    -0.212507029556     1.007825032070
         C            0.476635115837     0.432327647671     0.119579505223    12.000000000000
         H            0.379019487843     0.583463724575     1.206760095783     1.007825032070
         C            1.791255061443    -0.309102776955    -0.092774743502    12.000000000000
         O            1.874947617435    -1.488358759197    -0.367301441578    15.994914619560
         O            2.861465549294     0.485738973464     0.098367618966    15.994914619560
         H            3.662416759564    -0.062447759769    -0.009882743552     1.007825032070
         C            0.406673490232     1.791546509873    -0.585770038677    12.000000000000
         H           -0.560853909680     2.263403849703    -0.386746795354     1.007825032070
[...]
     16   H                0.07  0.03  0.04    0.15  0.18 -0.03   -0.19  0.33 -0.11   

  Vibration                       28                  29                  30          
  Freq [cm^-1]                1126.6918           1142.5729           1199.3437       
  Irrep                           A                   A                   A           
  Reduced mass [u]              2.0002              3.1255              2.1000        
  Force const [mDyne/A]         1.4960              2.4040              1.7798        
  Turning point v=0 [a0]        0.2311              0.1836              0.2186        
  RMS dev v=0 [a0 u^1/2]        0.2312              0.2295              0.2240        
  Char temp [K]               1621.0562           1643.9055           1725.5859       
  ----------------------------------------------------------------------------------
      1   C               -0.03 -0.06  0.00    0.07 -0.00  0.01   -0.02  0.00 -0.01   
      2   O                0.00  0.01 -0.00   -0.02  0.00  0.06    0.01 -0.00 -0.02   
      3   O                0.02  0.01  0.02   -0.01 -0.00 -0.05    0.00  0.00  0.01   
      4   N                0.04  0.05 -0.07   -0.13 -0.08 -0.07    0.03  0.05  0.06   
      5   H                0.01  0.11 -0.02    0.02 -0.08 -0.06   -0.03 -0.01  0.02   
      6   H               -0.39 -0.03  0.42   -0.20 -0.11 -0.12    0.18  0.08  0.01   
      7   C                0.06 -0.13  0.16    0.18  0.17  0.02   -0.10 -0.10 -0.01   
      8   H                0.06 -0.00  0.14    0.21  0.28 -0.00   -0.43 -0.22 -0.02   
      9   C                0.01  0.02 -0.04    0.13  0.02  0.03    0.14  0.04 -0.02   
     10   O               -0.01  0.02  0.01    0.00  0.07  0.01   -0.01  0.08  0.02   
     11   O               -0.01 -0.01  0.00   -0.12 -0.12 -0.03   -0.08 -0.14 -0.03   
     12   H               -0.05 -0.06  0.00    0.25  0.41  0.10    0.42  0.59  0.14   
     13   C               -0.05  0.03 -0.15   -0.10 -0.06  0.03    0.05  0.02 -0.02   
     14   H                0.08  0.19  0.15    0.08  0.34 -0.09   -0.02 -0.14  0.04   
     15   H                0.00 -0.24  0.26    0.14 -0.39  0.14   -0.08  0.20 -0.05   
     16   H                0.08  0.56 -0.19    0.23 -0.08  0.07   -0.14  0.11 -0.06   

  Vibration                       31                  32                  33          
  Freq [cm^-1]                1272.4081           1300.5166           1329.8333       
  Irrep                           A                   A                   A           
  Reduced mass [u]              2.4595              1.4521              1.6304        
  Force const [mDyne/A]         2.3461              1.4470              1.6988        
  Turning point v=0 [a0]        0.1961              0.2525              0.2357        
  RMS dev v=0 [a0 u^1/2]        0.2175              0.2151              0.2128        
  Char temp [K]               1830.7092           1871.1510           1913.3311       
  ----------------------------------------------------------------------------------
      1   C                0.21 -0.02  0.02   -0.09  0.04 -0.01    0.07 -0.01  0.01   
      2   O               -0.04  0.01  0.12    0.02 -0.01 -0.05   -0.01  0.01  0.04   
      3   O               -0.14  0.02 -0.14    0.07  0.00  0.06   -0.05 -0.01 -0.04   
      4   N               -0.00  0.04  0.02   -0.08  0.01 -0.01    0.03 -0.02 -0.03   
      5   H                0.14 -0.38 -0.09   -0.12 -0.43 -0.02    0.12  0.32 -0.00   
      6   H                0.46  0.15 -0.10    0.48  0.14 -0.21   -0.15 -0.05  0.19   
      7   C                0.01 -0.02  0.03   -0.01  0.03  0.04   -0.09  0.03 -0.01   
      8   H               -0.17 -0.55  0.09    0.49 -0.37  0.15    0.62 -0.14  0.08   
      9   C                0.02  0.01  0.01   -0.02 -0.01  0.03   -0.14 -0.04  0.03   
     10   O               -0.00 -0.02 -0.00    0.00  0.01 -0.00    0.02  0.03  0.00   
     11   O               -0.00  0.03  0.01    0.01 -0.00 -0.00    0.06 -0.03 -0.01   
     12   H               -0.15 -0.19 -0.05    0.05  0.07  0.01    0.37  0.44  0.09   
     13   C               -0.01 -0.01 -0.06   -0.00 -0.02 -0.05    0.03  0.00 -0.01   
     14   H                0.03  0.00  0.09    0.04  0.01  0.10   -0.02 -0.13  0.05   
     15   H               -0.02 -0.08  0.10   -0.04 -0.07  0.11   -0.03  0.04  0.04   
     16   H                0.00  0.20 -0.08    0.01  0.18 -0.07   -0.07 -0.01 -0.02   

  Vibration                       34                  35                  36          
  Freq [cm^-1]                1371.1869           1391.0082           1443.8479       
  Irrep                           A                   A                   A           
  Reduced mass [u]              1.4087              1.7706              1.2870        
  Force const [mDyne/A]         1.5604              2.0185              1.5808        
  Turning point v=0 [a0]        0.2497              0.2211              0.2545        
  RMS dev v=0 [a0 u^1/2]        0.2095              0.2080              0.2042        
  Char temp [K]               1972.8297           2001.3481           2077.3725       
  ----------------------------------------------------------------------------------
      1   C                0.04 -0.00  0.01    0.01  0.01  0.00    0.00 -0.00 -0.00   
      2   O               -0.01  0.00  0.02   -0.00  0.00  0.00   -0.00  0.00  0.00   
      3   O               -0.02  0.01 -0.02   -0.00 -0.02 -0.00   -0.00  0.00 -0.00   
      4   N               -0.02  0.03 -0.04   -0.02 -0.04 -0.03   -0.00  0.00  0.00   
      5   H                0.05 -0.31 -0.07    0.07  0.56  0.02   -0.00 -0.03 -0.00   
      6   H                0.28  0.11 -0.02    0.12  0.02  0.25    0.04  0.01 -0.01   
      7   C               -0.06 -0.15  0.03   -0.11  0.05 -0.01    0.04 -0.01 -0.00   
      8   H                0.42  0.74 -0.06    0.40 -0.13  0.07   -0.12  0.01 -0.02   
      9   C                0.03  0.01 -0.00    0.19  0.03  0.03   -0.07 -0.02 -0.01   
     10   O               -0.01  0.01  0.00   -0.02 -0.03 -0.01    0.01  0.01  0.00   
     11   O               -0.00 -0.00 -0.00   -0.06  0.01 -0.00    0.02  0.00  0.00   
     12   H               -0.01 -0.01 -0.00   -0.28 -0.32 -0.08    0.08  0.10  0.02   
     13   C                0.00  0.03  0.04    0.04 -0.06  0.01   -0.01 -0.11  0.06   
     14   H               -0.04  0.04 -0.15    0.10  0.11 -0.04    0.18  0.43 -0.26   
     15   H                0.03  0.07 -0.10   -0.18  0.23 -0.04   -0.17  0.36 -0.43   
     16   H               -0.04 -0.05  0.04   -0.12  0.18 -0.04    0.06  0.56 -0.01   

  Vibration                       37                  38                  39          
  Freq [cm^-1]                1463.8779           1521.3699           1524.2890       
  Irrep                           A                   A                   A           
  Reduced mass [u]              1.2549              1.0437              1.0903        
  Force const [mDyne/A]         1.5844              1.4233              1.4925        
  Turning point v=0 [a0]        0.2560              0.2754              0.2692        
  RMS dev v=0 [a0 u^1/2]        0.2028              0.1989              0.1987        
  Char temp [K]               2106.1912           2188.9092           2193.1091       
  ----------------------------------------------------------------------------------
      1   C               -0.00  0.03 -0.01    0.00 -0.00 -0.00    0.00 -0.00  0.00   
      2   O                0.00 -0.00 -0.00   -0.00  0.00  0.00   -0.00  0.00  0.00   
      3   O                0.01 -0.02  0.00   -0.00  0.00 -0.00   -0.00  0.00 -0.00   
      4   N               -0.08 -0.03 -0.01    0.01  0.01  0.00    0.02  0.00  0.00   
      5   H                0.04  0.56 -0.03    0.00 -0.06 -0.00   -0.01 -0.10  0.00   
      6   H                0.63  0.18  0.27   -0.03 -0.00 -0.02   -0.15 -0.05 -0.05   
      7   C                0.07 -0.05  0.01   -0.01 -0.02 -0.01   -0.06  0.02  0.00   
      8   H               -0.19  0.06 -0.04    0.00  0.06 -0.03    0.11 -0.03  0.03   
      9   C               -0.05  0.00 -0.01   -0.00  0.00 -0.00    0.04  0.00  0.00   
     10   O                0.01  0.00  0.00    0.00  0.00  0.00   -0.00 -0.00 -0.00   
     11   O                0.01 -0.00  0.00    0.00 -0.00 -0.00   -0.01 -0.00 -0.00   
     12   H                0.05  0.06  0.02    0.01  0.02  0.00   -0.03 -0.03 -0.01   
     13   C               -0.04  0.03 -0.01   -0.02 -0.02 -0.04   -0.04  0.01  0.01   
     14   H               -0.05 -0.07  0.13    0.27  0.33  0.56   -0.12 -0.32  0.29   
     15   H                0.12 -0.10 -0.10   -0.36  0.34  0.10    0.26 -0.04 -0.53   
     16   H                0.24 -0.04  0.03    0.34 -0.36  0.05    0.59  0.20  0.05   

  Vibration                       40                  41                  42          
  Freq [cm^-1]                1811.5878           1846.2733           2109.5356       
  Irrep                           A                   A                   A           
  Reduced mass [u]             10.1594              3.4410              1.3232        
  Force const [mDyne/A]        19.6443              6.9108              3.4694        
  Turning point v=0 [a0]        0.0809              0.1377              0.2077        
  RMS dev v=0 [a0 u^1/2]        0.1823              0.1806              0.1689        
  Char temp [K]               2606.4676           2656.3721           3035.1474       
  ----------------------------------------------------------------------------------
      1   C               -0.00 -0.01 -0.01    0.05  0.03  0.37    0.02 -0.01 -0.15   
      2   O               -0.00  0.00  0.01    0.03 -0.02 -0.22   -0.01  0.01  0.06   
      3   O               -0.00  0.00  0.00   -0.04  0.00 -0.09    0.01 -0.00  0.00   
      4   N               -0.00  0.01  0.00   -0.03  0.00 -0.04   -0.01  0.00 -0.02   
      5   H                0.01 -0.02 -0.06    0.01 -0.07  0.89   -0.16 -0.02  0.97   
      6   H               -0.13 -0.04  0.02    0.02  0.03  0.05    0.03  0.02  0.01   
      7   C                0.04 -0.04 -0.01    0.01 -0.00  0.01    0.00 -0.01  0.00   
      8   H                0.07 -0.04  0.01   -0.03  0.00  0.01    0.01  0.01 -0.01   
      9   C               -0.10  0.71  0.17   -0.00  0.01  0.00   -0.00  0.00  0.00   
     10   O                0.04 -0.44 -0.10    0.00 -0.01 -0.00    0.00 -0.00 -0.00   
     11   O               -0.01 -0.07 -0.02   -0.00 -0.00 -0.00    0.00 -0.00 -0.00   
     12   H                0.28  0.36  0.09    0.00  0.00  0.00    0.00  0.00 -0.00   
     13   C                0.00 -0.01 -0.00   -0.00 -0.00 -0.00   -0.00  0.00  0.00   
     14   H                0.02  0.00 -0.02    0.00  0.00  0.02   -0.00 -0.00 -0.00   
     15   H                0.01 -0.00 -0.01   -0.00  0.00 -0.00    0.00 -0.00 -0.00   
     16   H               -0.01  0.04 -0.00    0.01  0.00  0.00    0.00 -0.00  0.00   

  Vibration                       43                  44                  45          
  Freq [cm^-1]                3017.7837           3066.2870           3134.6977       
  Irrep                           A                   A                   A           
  Reduced mass [u]              1.0818              1.0363              1.1038        
  Force const [mDyne/A]         5.8048              5.7407              6.3907        
  Turning point v=0 [a0]        0.1920              0.1947              0.1865        
  RMS dev v=0 [a0 u^1/2]        0.1412              0.1401              0.1386        
  Char temp [K]               4341.9122           4411.6976           4510.1252       
  ----------------------------------------------------------------------------------
      1   C                0.00 -0.00 -0.00   -0.00  0.00 -0.00   -0.00  0.00  0.00   
      2   O               -0.00  0.00  0.00    0.00 -0.00  0.00    0.00 -0.00 -0.00   
      3   O               -0.00  0.00 -0.00    0.00 -0.00  0.00    0.00 -0.00 -0.00   
      4   N               -0.00 -0.00 -0.00   -0.00  0.00  0.00    0.00 -0.00 -0.00   
      5   H                0.00  0.00  0.00   -0.00  0.00 -0.00   -0.00  0.00  0.00   
      6   H               -0.00 -0.00 -0.00    0.00 -0.00  0.00   -0.00  0.00  0.00   
      7   C                0.01 -0.01 -0.08   -0.00 -0.00 -0.00   -0.00  0.00  0.01   
      8   H               -0.10  0.15  0.98   -0.00  0.01  0.04    0.01 -0.01 -0.06   
      9   C                0.00 -0.00 -0.00    0.00 -0.00 -0.00   -0.00 -0.00  0.00   
     10   O               -0.00  0.00  0.00   -0.00  0.00  0.00    0.00 -0.00 -0.00   
     11   O                0.00 -0.00  0.00   -0.00 -0.00  0.00    0.00  0.00 -0.00   
     12   H               -0.00  0.00  0.00   -0.00 -0.00 -0.00   -0.00  0.00  0.00   
     13   C               -0.00  0.00  0.01   -0.01  0.04 -0.03   -0.06  0.03  0.07   
     14   H                0.01 -0.00  0.00    0.53 -0.25 -0.12    0.65 -0.31 -0.13   
     15   H               -0.01 -0.00 -0.00   -0.32 -0.26 -0.15   -0.04 -0.02 -0.00   
     16   H                0.01 -0.01 -0.08   -0.07  0.08  0.66    0.06 -0.07 -0.66   

  Vibration                       46                  47                  48          
  Freq [cm^-1]                3157.9392           3448.9547           3677.5523       
  Irrep                           A                   A                   A           
  Reduced mass [u]              1.1018              1.0739              1.0646        
  Force const [mDyne/A]         6.4736              7.5262              8.4829        
  Turning point v=0 [a0]        0.1860              0.1803              0.1754        
  RMS dev v=0 [a0 u^1/2]        0.1381              0.1321              0.1279        
  Char temp [K]               4543.5645           4962.2704           5291.1709       
  ----------------------------------------------------------------------------------
      1   C                0.00  0.00 -0.00    0.00  0.00 -0.00   -0.00 -0.00  0.00   
      2   O               -0.00  0.00  0.00   -0.00 -0.00  0.00    0.00 -0.00 -0.00   
      3   O               -0.00 -0.00  0.00   -0.00 -0.00  0.00    0.00 -0.00  0.00   
      4   N                0.00  0.00  0.00    0.02 -0.07  0.01    0.00 -0.00  0.00   
      5   H                0.00  0.00  0.00    0.01  0.00 -0.01   -0.00  0.00 -0.00   
      6   H                0.00 -0.00  0.00   -0.26  0.96 -0.08   -0.00  0.00 -0.00   
      7   C               -0.00 -0.00 -0.00    0.00 -0.00  0.00    0.00 -0.00 -0.00   
      8   H               -0.00  0.00  0.03    0.00  0.00  0.00    0.00  0.00  0.00   
      9   C               -0.00 -0.00  0.00   -0.00  0.00  0.00   -0.00  0.00  0.00   
     10   O                0.00  0.00  0.00    0.00 -0.00  0.00    0.00  0.00  0.00   
     11   O               -0.00  0.00 -0.00   -0.00 -0.00 -0.00   -0.05  0.03  0.01   
     12   H                0.00  0.00 -0.00   -0.00  0.00  0.00    0.83 -0.54 -0.11   
     13   C               -0.07 -0.04 -0.04   -0.00  0.00 -0.00    0.00  0.00  0.00   
     14   H                0.27 -0.14 -0.07    0.00 -0.00 -0.00    0.00 -0.00  0.00   
     15   H                0.65  0.54  0.30    0.00  0.00  0.00    0.00  0.00  0.00   
     16   H               -0.04  0.03  0.28   -0.00  0.00  0.00   -0.00 -0.00 -0.00   

  ==> Thermochemistry Components <==

  Entropy, S
    Electronic S            0.000 [cal/(mol K)]        0.000 [J/(mol K)]       0.00000000 [mEh/K] (multiplicity = 1)
    Translational S        40.569 [cal/(mol K)]      169.741 [J/(mol K)]       0.06465075 [mEh/K] (mol. weight = 133.0375 [u], P = 101325.00 [Pa])
    Rotational S           29.283 [cal/(mol K)]      122.521 [J/(mol K)]       0.04666590 [mEh/K] (symmetry no. = 1)
    Vibrational S          25.686 [cal/(mol K)]      107.471 [J/(mol K)]       0.04093369 [mEh/K]
  Total S                  95.539 [cal/(mol K)]      399.733 [J/(mol K)]       0.15225034 [mEh/K]
  Correction S              0.000 [cal/(mol K)]        0.000 [J/(mol K)]       0.00000000 [mEh/K]

  Constant volume heat capacity, Cv
    Electronic Cv           0.000 [cal/(mol K)]        0.000 [J/(mol K)]       0.00000000 [mEh/K]
    Translational Cv        2.981 [cal/(mol K)]       12.472 [J/(mol K)]       0.00475022 [mEh/K]
    Rotational Cv           2.981 [cal/(mol K)]       12.472 [J/(mol K)]       0.00475022 [mEh/K]
    Vibrational Cv         25.542 [cal/(mol K)]      106.866 [J/(mol K)]       0.04070301 [mEh/K]
  Total Cv                 31.503 [cal/(mol K)]      131.809 [J/(mol K)]       0.05020345 [mEh/K]
  Correction Cv             0.000 [cal/(mol K)]        0.000 [J/(mol K)]       0.00000000 [mEh/K]

  Constant pressure heat capacity, Cp
    Electronic Cp           0.000 [cal/(mol K)]        0.000 [J/(mol K)]       0.00000000 [mEh/K]
    Translational Cp        4.968 [cal/(mol K)]       20.786 [J/(mol K)]       0.00791704 [mEh/K]
    Rotational Cp           2.981 [cal/(mol K)]       12.472 [J/(mol K)]       0.00475022 [mEh/K]
    Vibrational Cp         25.542 [cal/(mol K)]      106.866 [J/(mol K)]       0.04070301 [mEh/K]
  Total Cp                 33.490 [cal/(mol K)]      140.124 [J/(mol K)]       0.05337026 [mEh/K]
  Correction Cp             0.000 [cal/(mol K)]        0.000 [J/(mol K)]       0.00000000 [mEh/K]

  ==> Thermochemistry Energy Analysis <==

  Raw electronic energy, E0
  Total E0, Electronic energy at well bottom at 0 [K]                 -512.28466284 [Eh]

  Zero-point energy, ZPE_vib = Sum_i nu_i / 2
    Electronic ZPE          0.000 [kcal/mol]        0.000 [kJ/mol]       0.00000000 [Eh]
    Translational ZPE       0.000 [kcal/mol]        0.000 [kJ/mol]       0.00000000 [Eh]
    Rotational ZPE          0.000 [kcal/mol]        0.000 [kJ/mol]       0.00000000 [Eh]
    Vibrational ZPE        74.236 [kcal/mol]      310.602 [kJ/mol]       0.11830209 [Eh]       25964.305 [cm^-1]
  Correction ZPE           74.236 [kcal/mol]      310.602 [kJ/mol]       0.11830209 [Eh]       25964.305 [cm^-1]
  Total ZPE, Electronic energy at 0 [K]                               -512.16636074 [Eh]

  Thermal Energy, E (includes ZPE)
    Electronic E            0.000 [kcal/mol]        0.000 [kJ/mol]       0.00000000 [Eh]
    Translational E         0.889 [kcal/mol]        3.718 [kJ/mol]       0.00141628 [Eh]
    Rotational E            0.889 [kcal/mol]        3.718 [kJ/mol]       0.00141628 [Eh]
    Vibrational E          78.168 [kcal/mol]      327.056 [kJ/mol]       0.12456916 [Eh]
  Correction E             79.946 [kcal/mol]      334.493 [kJ/mol]       0.12740171 [Eh]
  Total E, Electronic energy at  298.15 [K]                           -512.15726112 [Eh]

  Enthalpy, H_trans = E_trans + k_B * T
    Electronic H            0.000 [kcal/mol]        0.000 [kJ/mol]       0.00000000 [Eh]
    Translational H         1.481 [kcal/mol]        6.197 [kJ/mol]       0.00236046 [Eh]
    Rotational H            0.889 [kcal/mol]        3.718 [kJ/mol]       0.00141628 [Eh]
    Vibrational H          78.168 [kcal/mol]      327.056 [kJ/mol]       0.12456916 [Eh]
  Correction H             80.538 [kcal/mol]      336.972 [kJ/mol]       0.12834590 [Eh]
  Total H, Enthalpy at  298.15 [K]                                    -512.15631694 [Eh]

  Gibbs free energy, G = H - T * S
    Electronic G            0.000 [kcal/mol]        0.000 [kJ/mol]       0.00000000 [Eh]
    Translational G       -10.614 [kcal/mol]      -44.411 [kJ/mol]      -0.01691516 [Eh]
    Rotational G           -7.842 [kcal/mol]      -32.811 [kJ/mol]      -0.01249716 [Eh]
    Vibrational G          70.510 [kcal/mol]      295.014 [kJ/mol]       0.11236478 [Eh]
  Correction G             52.053 [kcal/mol]      217.792 [kJ/mol]       0.08295246 [Eh]
  Total G, Free enthalpy at  298.15 [K]                               -512.20171037 [Eh]

    Psi4 stopped on: Tuesday, 12 February 2019 03:03PM
    Psi4 wall time for execution: 0:17:26.69

*** Psi4 exiting successfully. Buy a developer a beer!
