[Molden Format]

[FREQ]
       -1763.4386470276
          45.0682078828
          65.1413708004
         102.9981721739
         144.2527782663
         220.6390225746
         237.0938647193
         302.7567458734
         395.7466274585
         451.1516488723
         540.5205105501
         578.0943220705
         631.4754707460
         681.7567103733
         722.1428655236
         759.6565282476
         822.5225528420
         839.2353881440
         955.4243248339
         988.3154643774
        1087.0767765992
        1126.6918068215
        1142.5728812247
        1199.3436858107
        1272.4081379371
        1300.5165991956
        1329.8333197918
        1371.1869075392
        1391.0082371886
        1443.8479207407
        1463.8779435557
        1521.3698775755
        1524.2889974992
        1811.5878400109
        1846.2732728410
        2109.5355745722
        3017.7837160000
        3066.2869975778
        3134.6977184171
        3157.9392496035
        3448.9547156940
        3677.5522756417

[FR-COORD]
C         -3.7893124213       -0.3765048168        0.6900728300
O         -4.1257772751       -0.1350826317        2.9256201095
O         -5.1358524961       -0.2765551201       -1.3418151944
N         -1.1801403082       -0.8513157990       -0.5739338378
H         -2.9011060861       -0.5241311938       -2.3007633972
H         -0.6423036847       -2.7051690648       -0.4016201496
C          0.9006841504        0.8168638088        0.2259846826
H          0.7162077478        1.1024331535        2.2804624602
C          3.3850019639       -0.5841489461       -0.1753271632
O          3.5432313647       -2.8126069143       -0.6941403740
O          5.4073572203        0.9179454968        0.1859019628
H          6.9209697646       -0.1179244599       -0.0186767446
C          0.7683914358        3.3854305676       -1.1068948166
H         -1.0599997565        4.2770459789       -0.7307823879
H          2.2565904642        4.6355951399       -0.4107359943
H          0.9840319873        3.1656123660       -3.1536093702

[FR-NORM-COORD]
vibration 1
          -0.0614745331        0.0069585726       -0.0188227731
           0.0101567188       -0.0011711619        0.0056150106
          -0.0184339035        0.0022289809        0.0274354137
          -0.0087292172       -0.0023593920       -0.0199325142
           0.9814960984       -0.0905264326        0.1360248751
          -0.0010053379       -0.0081128102       -0.0374483246
           0.0041076973        0.0044201213       -0.0085641380
          -0.0409058613       -0.0243002292       -0.0117728888
           0.0034926079       -0.0000185311       -0.0006213434
          -0.0011622284       -0.0000099271       -0.0000678426
          -0.0011302691       -0.0004254330        0.0000912251
           0.0018562528        0.0018678869        0.0026452278
          -0.0012110513        0.0008849355       -0.0003906731
          -0.0005667906       -0.0012589724        0.0000457701
           0.0009984201       -0.0050887930        0.0011366211
           0.0030535273        0.0045224051       -0.0004460969
vibration 2
           0.0212083711       -0.0369742874        0.0408588429
           0.1408482811       -0.1142314679        0.0673808217
          -0.0945904709       -0.0146019526        0.1194866209
          -0.0329732711        0.0839093965       -0.1169049475
          -0.1336339591        0.1037914159       -0.0116623043
           0.0072184693        0.0836838513       -0.2341615788
          -0.0224509565        0.0762517731       -0.1272188848
          -0.0934769463        0.1869147833       -0.1506262271
          -0.0317598023        0.0185859193        0.0300163635
          -0.0450827051        0.0477148514       -0.0997350461
          -0.0257078625       -0.0599010924        0.3222047243
          -0.0322821406       -0.0820092960        0.3871734465
           0.0946275401        0.0097881681       -0.2737726131
           0.0982906763        0.0708949358       -0.4000223960
           0.0943562131        0.0141626898       -0.2796072293
           0.1732623986       -0.1107362536       -0.2526144483
vibration 3
           0.0205212858       -0.0713301482       -0.0295223197
           0.0948508926       -0.3693746914        0.0137454808
          -0.0548444729        0.1428010347        0.0312125614
          -0.0137530403        0.1450441952       -0.1750995116
          -0.0792404064        0.2967339777       -0.0769204986
           0.0440236820        0.1422386552       -0.3510345337
          -0.0125560004        0.0994133824       -0.0679884462
          -0.0974816561        0.0576916264       -0.0676984323
          -0.0385843776        0.0061794370        0.0685237723
          -0.1112895540       -0.0912801863        0.4584850689
           0.0079920652        0.0185657289       -0.2720148263
          -0.0252214048       -0.0612685913       -0.1165809440
           0.1093366664        0.1251029492       -0.0210061224
           0.1093911019        0.1553668610       -0.0915540800
           0.1018878113        0.0811175593        0.0740054434
           0.2049289569        0.1652054774       -0.0149983630
vibration 4
          -0.0051487696        0.0357526733        0.0422519822
          -0.1001496058       -0.1868262753        0.0506264563
           0.1074754606        0.4387796348       -0.0159834100
           0.0025559292       -0.1710962762        0.1094576085
           0.0709271039        0.0536356690        0.0683268631
          -0.0199645707       -0.1648564758        0.2157099239
          -0.0169643162       -0.0896951471       -0.0085220718
           0.0346879513        0.0417800132       -0.0238996810
           0.0332582140       -0.0000340293        0.0047684289
           0.1432751978        0.0126018981       -0.0075570876
          -0.0403602486        0.1009510413        0.0253174020
           0.0130276928        0.1794974365        0.0246500761
          -0.1295608107       -0.1882836532       -0.1971137481
          -0.1546395829       -0.2212681568       -0.2421747601
          -0.1607603582       -0.0819662940       -0.3229194767
          -0.1584375241       -0.3458506292       -0.1836081619
vibration 5
           0.0782710162        0.0278227664       -0.0614729687
           0.3251253911        0.1693832626       -0.0377366824
          -0.0809152928        0.0974985295        0.0516325065
          -0.0496770382       -0.1279183355       -0.2213464296
          -0.1381388517       -0.0180603929       -0.1162318891
          -0.0897655316       -0.1414490014       -0.2401353476
          -0.0839300951       -0.1538906417       -0.0843841034
          -0.1851408960       -0.3115099864       -0.0685579233
          -0.0209688097       -0.0417713151        0.0044963872
           0.1215578093       -0.0526665549        0.0965493279
          -0.1217281148        0.0834499436        0.0629991551
          -0.0518284523        0.1617286000        0.1865720235
          -0.1568245486       -0.0489541971        0.1384834601
          -0.2158942461       -0.1766236015        0.1546045266
          -0.2512905384       -0.0357147135        0.3145338015
          -0.0664631801        0.1561305485        0.1262512355
vibration 6
          -0.0698155496        0.0093104373        0.0212189985
          -0.0690528259        0.0121535447        0.0188082677
          -0.0754187600       -0.0106451737        0.0276925732
          -0.0462012766        0.0149695709       -0.0172315843
          -0.0804434567        0.0318010313        0.0099524431
          -0.0890068755       -0.0018465104       -0.0581559041
           0.0027858761       -0.0501399564        0.0129943520
          -0.0272392478       -0.0521033866        0.0094960107
           0.0196535045       -0.0215827639        0.0042027989
           0.1081345406       -0.0062265329       -0.0265667229
          -0.0348026878        0.0708070503       -0.0345680087
           0.0081772462        0.1406297923       -0.0675073501
           0.1602364739       -0.0432254967        0.0085889510
           0.0107114488       -0.1593068321       -0.4432407399
          -0.0919918959        0.0370462130        0.4012950432
           0.6969603740        0.0047195579        0.0601509527
vibration 7
          -0.0673272197        0.0119365138        0.0099626420
          -0.0611370418       -0.0000113359        0.0094430942
          -0.0796653389       -0.0098355860        0.0212633802
          -0.0435577107        0.0263041827       -0.0371315870
          -0.0870348043        0.0389922356       -0.0028892749
          -0.0838319481        0.0109728281       -0.0711150822
           0.0166917853       -0.0360828696       -0.0388167958
           0.0412256859       -0.0593862561       -0.0323983771
           0.0400840650       -0.0205848797       -0.0210625997
           0.1247682068       -0.0218743448        0.0184631549
          -0.0031771733        0.0439882481        0.0077478226
           0.0280498157        0.0782516070        0.0704028402
           0.0724221674       -0.0072748127        0.0139220900
           0.2949357484        0.2637198875        0.4508053608
           0.4262437625       -0.2358192602       -0.3356402690
          -0.4461691436       -0.0376693595       -0.0379848943
vibration 8
          -0.0711131754        0.0343276967        0.0352248552
          -0.1194190911       -0.0026538144        0.0272807273
          -0.0685382102       -0.0047357300        0.0379566107
          -0.0101130191        0.0557166204       -0.0440013418
          -0.0990287975        0.0392987739        0.0124350463
          -0.0414549569        0.0453310184       -0.0559400453
           0.0722868630        0.0264126428       -0.1365203790
           0.1604150590       -0.0164023768       -0.1193435404
           0.1210846382       -0.0145148199       -0.0804648240
           0.1233034677       -0.0489245247        0.0567217097
           0.1764141457       -0.1053534779        0.0438283663
           0.1227918741       -0.2182969971        0.2063216592
          -0.1973796253        0.0886910475       -0.0027639881
          -0.3778394359       -0.2553919424       -0.0541232017
          -0.4694117708        0.3073653585        0.1932875573
          -0.0342189534        0.2833027665       -0.0053343340
vibration 9
          -0.0475097559       -0.0000331371       -0.0504691139
           0.0612074484        0.0057703663       -0.0377860876
          -0.1170803662        0.0004273411       -0.0042791357
          -0.0420200161        0.0950085169       -0.0700974363
          -0.0674458980        0.2198452803       -0.0537603170
          -0.1181851570        0.0518818634       -0.2927913422
          -0.0119529704       -0.0223436185        0.2116514396
          -0.1883469203       -0.0322745543        0.1915665447
           0.0602822398        0.0479873122        0.1597092219
           0.0087746642        0.0916592973       -0.0274745473
           0.1764317440       -0.0325112249       -0.0435142921
           0.0776475288       -0.1107827398       -0.3963966902
          -0.0716046081       -0.1759212530       -0.0124798343
          -0.0963991071       -0.1898022955       -0.0999314813
          -0.0902192012       -0.0139103197       -0.2657307039
          -0.1430007751       -0.4924000803        0.0130469066

















































































































































































































































































































































































































































































































































































