
    -----------------------------------------------------------------------
          Psi4: An Open-Source Ab Initio Electronic Structure Package
                               Psi4 1.2.1 release

                         Git: Rev {HEAD} 406f4de 


    R. M. Parrish, L. A. Burns, D. G. A. Smith, A. C. Simmonett,
    A. E. DePrince III, E. G. Hohenstein, U. Bozkaya, A. Yu. Sokolov,
    R. Di Remigio, R. M. Richard, J. F. Gonthier, A. M. James,
    H. R. McAlexander, A. Kumar, M. Saitow, X. Wang, B. P. Pritchard,
    P. Verma, H. F. Schaefer III, K. Patkowski, R. A. King, E. F. Valeev,
    F. A. Evangelista, J. M. Turney, T. D. Crawford, and C. D. Sherrill,
    J. Chem. Theory Comput. 13(7) pp 3185--3197 (2017).
    (doi: 10.1021/acs.jctc.7b00174)


                         Additional Contributions by
    P. Kraus, H. Kruse, M. H. Lechner, M. C. Schieber, and R. A. Shaw

    -----------------------------------------------------------------------


    Psi4 started on: Tuesday, 19 March 2019 01:16PM

    Process ID: 9691
    Host:       localhost.localdomain
    PSIDATADIR: /root/psi4conda/share/psi4
    Memory:     500.0 MiB
    Threads:    1
    
  ==> Input File <==

--------------------------------------------------------------------------
molecule{
0 1
 C    0.024925462944    0.023733704855   -1.607230184222
 O   -0.938858899405    0.065746964671   -2.304391235313
BR    1.556013283696    0.453760824269    0.822811660472
BR   -1.607521894642    0.635879830442    0.701173800982
 H    1.492221463747    3.737281161973   -2.567268661796
 C    1.432489018953    2.684961477901   -2.279055748725
 H    1.388158022487    2.067973271711   -3.183596993582
 H    2.328570708862    2.425769852581   -1.715468260598
 O    0.330810037704    2.439476466859   -1.421734586888
 H   -0.490675183152    2.629507340285   -1.888089930381
 C   -0.046346216429   -0.170182716162   -0.076081453565
BR   -0.113640734107   -2.121818566043   -0.021524493905
 H    1.062671024319   -0.020574785636   -1.981123205501 
}

basis {
  assign 6-311ppgss
  assign Br def2-tzvpp
}

set{
   freeze_core True
}


set_num_threads(32)
optimize('m06-2x')
--------------------------------------------------------------------------
  Threads set to 32 by Python driver.
gradient() will perform analytic gradient computation.

*** tstart() called on localhost.localdomain
*** at Tue Mar 19 13:16:35 2019

   => Loading Basis Set <=

    Name: ANONYMOUS5BD342C2
    Role: ORBITAL
    Keyword: BASIS
    atoms 1, 6, 11       entry C          line   119 file /root/psi4conda/share/psi4/basis/6-311ppgss.gbs 
    atoms 2, 9           entry O          line   161 file /root/psi4conda/share/psi4/basis/6-311ppgss.gbs 
    atoms 3-4, 12        entry BR         line  1545 file /root/psi4conda/share/psi4/basis/def2-tzvpp.gbs 
    atoms 5, 7-8, 10, 13 entry H          line    42 file /root/psi4conda/share/psi4/basis/6-311ppgss.gbs 


         ---------------------------------------------------------
                                   SCF
            by Justin Turney, Rob Parrish, Andy Simmonett
                             and Daniel Smith
                              RKS Reference
                       32 Threads,    500 MiB Core
         ---------------------------------------------------------

  ==> Geometry <==

    Molecular point group: c1
    Full point group: C1

    Geometry (in Angstrom), charge = 0, multiplicity = 1:

       Center              X                  Y                   Z               Mass       
    ------------   -----------------  -----------------  -----------------  -----------------
         C            0.024925462944     0.023733704855    -1.607230184222    12.000000000000
         O           -0.938858899405     0.065746964671    -2.304391235313    15.994914619560
         BR           1.556013283696     0.453760824269     0.822811660472    78.918337087000
         BR          -1.607521894642     0.635879830442     0.701173800982    78.918337087000
         H            1.492221463747     3.737281161973    -2.567268661796     1.007825032070
         C            1.432489018953     2.684961477901    -2.279055748725    12.000000000000
         H            1.388158022487     2.067973271711    -3.183596993582     1.007825032070
         H            2.328570708862     2.425769852581    -1.715468260598     1.007825032070
         O            0.330810037704     2.439476466859    -1.421734586888    15.994914619560
         H           -0.490675183152     2.629507340285    -1.888089930381     1.007825032070
         C           -0.046346216429    -0.170182716162    -0.076081453565    12.000000000000
         BR          -0.113640734107    -2.121818566043    -0.021524493905    78.918337087000
         H            1.062671024319    -0.020574785636    -1.981123205501     1.007825032070

  Running in c1 symmetry.

  Rotational constants: A =      0.02303  B =      0.01742  C =      0.01547 [cm^-1]
  Rotational constants: A =    690.36388  B =    522.34605  C =    463.69379 [MHz]
  Nuclear repulsion = 1442.969891472577729

  Charge       = 0
  Multiplicity = 1
  Electrons    = 144
  Nalpha       = 72
  Nbeta        = 72

  ==> Algorithm <==

  SCF Algorithm Type is DF.
  DIIS enabled.
  MOM disabled.
  Fractional occupation disabled.
  Guess Type is SAD.
  Energy threshold   = 1.00e-08
  Density threshold  = 1.00e-08
  Integral threshold = 0.00e+00

  ==> Primary Basis <==

  Basis Set: ANONYMOUS5BD342C2
    Blend: 6-311PPGSS + DEF2-TZVPP
    Number of shells: 123
    Number of basis function: 289
    Number of Cartesian functions: 315
    Spherical Harmonics?: true
    Max angular momentum: 3

  ==> DFT Potential <==

   => Composite Functional: M06-2X <= 

    Hybrid M06-2X Meta-GGA XC Functional

    Y. Zhao and D. G. Truhlar,  Theor. Chem. Acc., 120, 215, 2008


    Deriv               =              1
    GGA                 =           TRUE
    Meta                =           TRUE

    Exchange Hybrid     =           TRUE
    MP2 Hybrid          =          FALSE

   => Exchange Functionals <=

    1.0000   XC_HYB_MGGA_X_M06_2X

   => Exact (HF) Exchange <=

    0.5400               HF 

   => Correlation Functionals <=

    1.0000   XC_MGGA_C_M06_2X

   => Molecular Quadrature <=

    Radial Scheme       =       TREUTLER
    Pruning Scheme      =           FLAT
    Nuclear Scheme      =       TREUTLER

    BS radius alpha     =              1
    Pruning alpha       =              1
    Radial Points       =             75
    Spherical Points    =            302
    Total Points        =         294014
    Total Blocks        =           2276
    Max Points          =            256
    Max Functions       =            252

   => Loading Basis Set <=

    Name: (ANONYMOUS5BD342C2 AUX)
    Role: JKFIT
    Keyword: DF_BASIS_SCF
    atoms 1, 6, 11       entry C          line   162 file /root/psi4conda/share/psi4/basis/aug-cc-pvtz-jkfit.gbs 
    atoms 2, 9           entry O          line   286 file /root/psi4conda/share/psi4/basis/aug-cc-pvtz-jkfit.gbs 
    atoms 3-4, 12        entry BR         line  3129 file /root/psi4conda/share/psi4/basis/def2-tzvpp-jkfit.gbs 
    atoms 5, 7-8, 10, 13 entry H          line    70 file /root/psi4conda/share/psi4/basis/aug-cc-pvtz-jkfit.gbs 

  ==> Pre-Iterations <==

   -------------------------------------------------------
    Irrep   Nso     Nmo     Nalpha   Nbeta   Ndocc  Nsocc
   -------------------------------------------------------
     A        289     289       0       0       0       0
   -------------------------------------------------------
    Total     289     289      72      72      72       0
   -------------------------------------------------------

  ==> Integral Setup <==

  ==> DiskDFJK: Density-Fitted J/K Matrices <==

    J tasked:                  Yes
    K tasked:                  Yes
    wK tasked:                  No
    OpenMP threads:             32
    Integrals threads:          32
    Memory (MB):               375
    Algorithm:                Disk
    Integral Cache:           NONE
    Schwarz Cutoff:          1E-12
    Fitting Condition:       1E-12

   => Auxiliary Basis Set <=

  Basis Set: (ANONYMOUS5BD342C2 AUX)
    Blend: AUG-CC-PVTZ-JKFIT + DEF2-TZVPP-JKFIT
    Number of shells: 400
    Number of basis function: 1548
    Number of Cartesian functions: 2043
    Spherical Harmonics?: true
    Max angular momentum: 5

  Minimum eigenvalue in the overlap matrix is 6.6532461416E-05.
  Using Symmetric Orthogonalization.

  SCF Guess: Superposition of Atomic Densities via on-the-fly atomic UHF.

  ==> Iterations <==

                           Total Energy        Delta E     RMS |[F,P]|

   @DF-RKS iter   0: -7991.13747256811803   -7.99114e+03   9.45102e-02 
   @DF-RKS iter   1: -7989.82203657416358    1.31544e+00   2.71275e-02 
   @DF-RKS iter   2: -7989.61311553551423    2.08921e-01   2.79422e-02 DIIS
   @DF-RKS iter   3: -7990.18892732019322   -5.75812e-01   8.08850e-03 DIIS
   @DF-RKS iter   4: -7990.27978743720541   -9.08601e-02   1.19407e-03 DIIS
   @DF-RKS iter   5: -7990.28184837717254   -2.06094e-03   4.67074e-04 DIIS
   @DF-RKS iter   6: -7990.28233524266216   -4.86865e-04   9.35296e-05 DIIS
   @DF-RKS iter   7: -7990.28235075893190   -1.55163e-05   4.20384e-05 DIIS
   @DF-RKS iter   8: -7990.28235403824237   -3.27931e-06   2.02788e-05 DIIS
   @DF-RKS iter   9: -7990.28235469964056   -6.61398e-07   4.95724e-06 DIIS
   @DF-RKS iter  10: -7990.28235475599195   -5.63514e-08   1.64459e-06 DIIS
   @DF-RKS iter  11: -7990.28235476251302   -6.52108e-09   3.18259e-07 DIIS
   @DF-RKS iter  12: -7990.28235476309874   -5.85715e-10   9.58279e-08 DIIS
   @DF-RKS iter  13: -7990.28235476317514   -7.63976e-11   4.47627e-08 DIIS
   @DF-RKS iter  14: -7990.28235476318059   -5.45697e-12   2.04985e-08 DIIS
   @DF-RKS iter  15: -7990.28235476318696   -6.36646e-12   7.22066e-09 DIIS

  ==> Post-Iterations <==

    Orbital Energies [Eh]
    ---------------------

    Doubly Occupied:                                                      

       1A   -485.398999     2A   -485.397542     3A   -485.394477  
       4A    -63.384480     5A    -63.382935     6A    -63.379867  
       7A    -57.202958     8A    -57.201458     9A    -57.200248  
      10A    -57.200137    11A    -57.198703    12A    -57.198606  
      13A    -57.198428    14A    -57.195595    15A    -57.195544  
      16A    -19.650979    17A    -19.645192    18A    -10.714733  
      19A    -10.671435    20A    -10.595906    21A     -9.049934  
      22A     -9.048339    23A     -9.045308    24A     -6.874530  
      25A     -6.873018    26A     -6.870160    27A     -6.864582  
      28A     -6.864206    29A     -6.862954    30A     -6.862624  
      31A     -6.859756    32A     -6.859592    33A     -2.908320  
      34A     -2.906841    35A     -2.904902    36A     -2.904545  
      37A     -2.904037    38A     -2.903332    39A     -2.903017  
      40A     -2.900267    41A     -2.900118    42A     -2.895276  
      43A     -2.895269    44A     -2.893627    45A     -2.893615  
      46A     -2.890450    47A     -2.890437    48A     -1.213928  
      49A     -1.167171    50A     -0.988430    51A     -0.878850  
      52A     -0.875533    53A     -0.797107    54A     -0.783144  
      55A     -0.661970    56A     -0.608644    57A     -0.582800  
      58A     -0.555390    59A     -0.554149    60A     -0.528230  
      61A     -0.511469    62A     -0.489925    63A     -0.471029  
      64A     -0.430884    65A     -0.393167    66A     -0.387247  
      67A     -0.386344    68A     -0.373727    69A     -0.357077  
      70A     -0.356127    71A     -0.347037    72A     -0.341684  

    Virtual:                                                              

      73A     -0.034559    74A     -0.024451    75A     -0.005929  
      76A      0.011433    77A      0.012037    78A      0.025971  
      79A      0.034845    80A      0.050963    81A      0.052282  
      82A      0.066156    83A      0.070050    84A      0.076614  
      85A      0.087078    86A      0.109363    87A      0.115632  
      88A      0.121202    89A      0.123852    90A      0.130297  
      91A      0.142211    92A      0.151613    93A      0.162533  
      94A      0.175727    95A      0.178351    96A      0.200494  
      97A      0.207381    98A      0.232541    99A      0.236443  
     100A      0.249126   101A      0.255270   102A      0.260553  
     103A      0.265831   104A      0.273040   105A      0.284316  
     106A      0.287042   107A      0.296451   108A      0.303572  
     109A      0.317091   110A      0.317868   111A      0.323066  
     112A      0.329087   113A      0.334391   114A      0.344324  
     115A      0.356193   116A      0.365789   117A      0.377313  
     118A      0.382750   119A      0.393092   120A      0.405446  
     121A      0.414465   122A      0.429397   123A      0.432051  
     124A      0.451049   125A      0.459237   126A      0.475772  
     127A      0.486932   128A      0.502818   129A      0.512890  
     130A      0.535410   131A      0.547245   132A      0.552792  
     133A      0.569748   134A      0.584891   135A      0.597810  
     136A      0.613723   137A      0.625052   138A      0.647778  
     139A      0.671880   140A      0.686572   141A      0.695924  
     142A      0.723322   143A      0.741965   144A      0.780648  
     145A      0.802916   146A      0.829335   147A      0.867232  
     148A      0.898817   149A      0.914039   150A      0.937119  
     151A      0.956969   152A      1.018754   153A      1.024509  
     154A      1.073639   155A      1.083976   156A      1.123666  
     157A      1.156161   158A      1.180396   159A      1.195693  
     160A      1.223800   161A      1.243252   162A      1.255463  
     163A      1.293884   164A      1.298772   165A      1.318261  
     166A      1.344631   167A      1.356032   168A      1.381797  
     169A      1.389033   170A      1.393795   171A      1.398318  
     172A      1.407158   173A      1.409366   174A      1.411383  
     175A      1.424509   176A      1.434782   177A      1.442592  
     178A      1.451873   179A      1.453628   180A      1.477289  
     181A      1.481990   182A      1.496232   183A      1.511927  
     184A      1.524469   185A      1.532050   186A      1.536263  
     187A      1.547747   188A      1.557340   189A      1.564355  
     190A      1.568131   191A      1.573264   192A      1.586050  
     193A      1.588937   194A      1.595104   195A      1.604908  
     196A      1.614043   197A      1.643328   198A      1.671575  
     199A      1.674564   200A      1.685942   201A      1.691392  
     202A      1.698394   203A      1.714773   204A      1.725279  
     205A      1.739659   206A      1.753292   207A      1.766940  
     208A      1.768523   209A      1.782452   210A      1.790025  
     211A      1.807768   212A      1.817391   213A      1.842000  
     214A      1.846914   215A      1.866597   216A      1.881695  
     217A      1.902579   218A      1.955956   219A      1.986972  
     220A      2.037811   221A      2.049237   222A      2.060648  
     223A      2.082604   224A      2.089804   225A      2.113908  
     226A      2.148315   227A      2.172115   228A      2.266274  
     229A      2.270768   230A      2.340257   231A      2.349649  
     232A      2.455198   233A      2.474674   234A      2.501823  
     235A      2.536933   236A      2.542508   237A      2.551817  
     238A      2.618317   239A      2.696599   240A      2.799992  
     241A      2.881506   242A      2.949951   243A      2.952031  
     244A      2.965891   245A      3.062905   246A      3.120824  
     247A      3.196983   248A      3.261305   249A      3.320486  
     250A      3.336148   251A      3.352652   252A      3.415800  
     253A      3.555428   254A      3.604154   255A      3.781310  
     256A      3.806144   257A      3.833651   258A      3.965435  
     259A      3.987078   260A      4.063578   261A      4.074232  
     262A      4.079169   263A      4.089160   264A      4.094772  
     265A      4.120233   266A      4.123842   267A      4.168486  
     268A      4.176975   269A      4.180803   270A      4.205527  
     271A      4.217764   272A      4.240817   273A      4.374743  
     274A      4.477666   275A      4.499974   276A      5.160499  
     277A      5.245827   278A      5.268964   279A      5.531326  
     280A      5.735400   281A      5.810953   282A      7.582968  
     283A      7.599117   284A      7.616848   285A     23.576856  
     286A     23.942157   287A     23.992248   288A     50.011547  
     289A     50.097119  

    Final Occupation by Irrep:
              A 
    DOCC [    72 ]

  Energy converged.

  @DF-RKS Final Energy: -7990.28235476318696

   => Energetics <=

    Nuclear Repulsion Energy =           1442.9698914725777286
    One-Electron Energy =              -13991.5564225008711219
    Two-Electron Energy =                4704.3286669010894911
    DFT Exchange-Correlation Energy =    -146.0244906359828292
    Empirical Dispersion Energy =           0.0000000000000000
    VV10 Nonlocal Energy =                  0.0000000000000000
    Total Energy =                      -7990.2823547631869587



Properties will be evaluated at   0.000000,   0.000000,   0.000000 [a0]

Properties computed using the SCF density matrix

  Nuclear Dipole Moment: [e a0]
     X:     6.8082      Y:    18.8719      Z:   -23.3053

  Electronic Dipole Moment: [e a0]
     X:    -6.1287      Y:   -18.2850      Z:    22.8691

  Dipole Moment: [e a0]
     X:     0.6795      Y:     0.5870      Z:    -0.4362     Total:     0.9982

  Dipole Moment: [D]
     X:     1.7270      Y:     1.4919      Z:    -1.1088     Total:     2.5373


*** tstop() called on localhost.localdomain at Tue Mar 19 13:17:02 2019
Module time:
	user time   =     699.28 seconds =      11.65 minutes
	system time =      28.99 seconds =       0.48 minutes
	total time  =         27 seconds =       0.45 minutes
Total time:
	user time   =     699.28 seconds =      11.65 minutes
	system time =      28.99 seconds =       0.48 minutes
	total time  =         27 seconds =       0.45 minutes

*** tstart() called on localhost.localdomain
*** at Tue Mar 19 13:17:02 2019


         ------------------------------------------------------------
                                   SCF GRAD                          
                          Rob Parrish, Justin Turney,                
                       Andy Simmonett, and Alex Sokolov              
         ------------------------------------------------------------

  ==> Geometry <==

    Molecular point group: c1
    Full point group: C1

    Geometry (in Angstrom), charge = 0, multiplicity = 1:

       Center              X                  Y                   Z               Mass       
    ------------   -----------------  -----------------  -----------------  -----------------
         C            0.024925462944     0.023733704855    -1.607230184222    12.000000000000
         O           -0.938858899405     0.065746964671    -2.304391235313    15.994914619560
         BR           1.556013283696     0.453760824269     0.822811660472    78.918337087000
         BR          -1.607521894642     0.635879830442     0.701173800982    78.918337087000
         H            1.492221463747     3.737281161973    -2.567268661796     1.007825032070
         C            1.432489018953     2.684961477901    -2.279055748725    12.000000000000
         H            1.388158022487     2.067973271711    -3.183596993582     1.007825032070
         H            2.328570708862     2.425769852581    -1.715468260598     1.007825032070
         O            0.330810037704     2.439476466859    -1.421734586888    15.994914619560
         H           -0.490675183152     2.629507340285    -1.888089930381     1.007825032070
         C           -0.046346216429    -0.170182716162    -0.076081453565    12.000000000000
         BR          -0.113640734107    -2.121818566043    -0.021524493905    78.918337087000
         H            1.062671024319    -0.020574785636    -1.981123205501     1.007825032070

  Nuclear repulsion = 1442.969891472577729

  ==> Basis Set <==

  Basis Set: ANONYMOUS5BD342C2
    Blend: 6-311PPGSS + DEF2-TZVPP
    Number of shells: 123
    Number of basis function: 289
    Number of Cartesian functions: 315
    Spherical Harmonics?: true
    Max angular momentum: 3

  ==> DFJKGrad: Density-Fitted SCF Gradients <==

    Gradient:                    1
    J tasked:                  Yes
    K tasked:                  Yes
    wK tasked:                  No
    OpenMP threads:             32
    Integrals threads:          32
    Memory (MB):               375
    Schwarz Cutoff:          0E+00
    Fitting Condition:       1E-12

   => Auxiliary Basis Set <=

  Basis Set: (ANONYMOUS5BD342C2 AUX)
    Blend: AUG-CC-PVTZ-JKFIT + DEF2-TZVPP-JKFIT
    Number of shells: 400
    Number of basis function: 1548
    Number of Cartesian functions: 2043
    Spherical Harmonics?: true
    Max angular momentum: 5

  ==> DFT Potential <==

   => Composite Functional: M06-2X <= 

    Hybrid M06-2X Meta-GGA XC Functional

    Y. Zhao and D. G. Truhlar,  Theor. Chem. Acc., 120, 215, 2008


    Deriv               =              1
    GGA                 =           TRUE
    Meta                =           TRUE

    Exchange Hybrid     =           TRUE
    MP2 Hybrid          =          FALSE

   => Exchange Functionals <=

    1.0000   XC_HYB_MGGA_X_M06_2X

   => Exact (HF) Exchange <=

    0.5400               HF 

   => Correlation Functionals <=

    1.0000   XC_MGGA_C_M06_2X

   => Molecular Quadrature <=

    Radial Scheme       =       TREUTLER
    Pruning Scheme      =           FLAT
    Nuclear Scheme      =       TREUTLER

    BS radius alpha     =              1
    Pruning alpha       =              1
    Radial Points       =             75
    Spherical Points    =            302
    Total Points        =         294014
    Total Blocks        =           2276
    Max Points          =            256
    Max Functions       =            252


  -Total Gradient:
     Atom            X                  Y                   Z
    ------   -----------------  -----------------  -----------------
       1       -0.000086680313     0.000137974172    -0.000113627346
       2       -0.000260585864    -0.001073605622    -0.000058909992
       3        0.000659553988     0.000586405875     0.003831487066
       4        0.000824364362     0.001489640367     0.001855743970
       5       -0.000087245510    -0.000150043941     0.000037661792
       6       -0.000283241396    -0.001518758723     0.000275908873
       7        0.000094822559    -0.000112567696     0.000044516096
       8       -0.000099319803    -0.000046549710     0.000079910193
       9       -0.000033482875    -0.003548581647    -0.000517783052
      10       -0.001384482487     0.000052457332    -0.000875298112
      11        0.000117990776     0.000512311084    -0.000016016672
      12        0.000439270207     0.004053333205    -0.005934259941
      13       -0.000024114945    -0.000000949601    -0.000012072858


*** tstop() called on localhost.localdomain at Tue Mar 19 13:17:12 2019
Module time:
	user time   =     220.72 seconds =       3.68 minutes
	system time =       7.14 seconds =       0.12 minutes
	total time  =         10 seconds =       0.17 minutes
Total time:
	user time   =     920.07 seconds =      15.33 minutes
	system time =      36.13 seconds =       0.60 minutes
	total time  =         37 seconds =       0.62 minutes

			-----------------------------------------
			 OPTKING 2.0: for geometry optimizations 
			  - R.A. King,  Bethel University        
			-----------------------------------------

	Internal coordinates to be generated automatically.
	Detected frag 1 with atoms:  1 2 3 4 11 12 13
	Detected frag 2 with atoms:  5 6 7 8 9 10
	Unifying fragments since fragment_mode == SINGLE
	Increasing scaling to  2.200 to connect fragments.
	Increasing scaling to  2.600 to connect fragments.
	Increasing scaling to  3.000 to connect fragments.
	Increasing scaling to  3.400 to connect fragments.
	Increasing scaling to  3.800 to connect fragments.
	Increasing scaling to  4.200 to connect fragments.
	Connecting fragments 1 and 2
	---Fragment 1 Bond Connectivity---
	 1 : 2 11 13
	 2 : 1
	 3 : 11
	 4 : 11
	 5 : 6
	 6 : 5 7 8 9
	 7 : 6 13
	 8 : 6
	 9 : 6 10
	 10 : 9
	 11 : 1 3 4 12
	 12 : 11
	 13 : 1 7

	---Fragment 1 Geometry and Gradient---
	 C           0.0471022987        0.0448502023       -3.0372248807
	 O          -1.7741861973        0.1242437573       -4.3546683378
	 BR          2.9404389653        0.8574836877        1.5548886972
	 BR         -3.0377761335        1.2016387330        1.3250264554
	 H           2.8198898961        7.0624378777       -4.8514346803
	 C           2.7070119342        5.0738418706       -4.3067912067
	 H           2.6232384917        3.9079031337       -6.0161264353
	 H           4.4003609208        4.5840406828       -3.2417652022
	 O           0.6251403733        4.6099424300       -2.6866890029
	 H          -0.9272417164        4.9690487376       -3.5679728827
	 C          -0.0875816563       -0.3215987261       -0.1437731110
	 BR         -0.2147498650       -4.0096559935       -0.0406753986
	 H           2.0081572053       -0.0388807101       -3.7437802939
	            -0.0000866803        0.0001379742       -0.0001136273
	            -0.0002605859       -0.0010736056       -0.0000589100
	             0.0006595540        0.0005864059        0.0038314871
	             0.0008243644        0.0014896404        0.0018557440
	            -0.0000872455       -0.0001500439        0.0000376618
	            -0.0002832414       -0.0015187587        0.0002759089
	             0.0000948226       -0.0001125677        0.0000445161
	            -0.0000993198       -0.0000465497        0.0000799102
	            -0.0000334829       -0.0035485816       -0.0005177831
	            -0.0013844825        0.0000524573       -0.0008752981
	             0.0001179908        0.0005123111       -0.0000160167
	             0.0004392702        0.0040533332       -0.0059342599
	            -0.0000241149       -0.0000009496       -0.0000120729

	Previous optimization step data not found.  Starting new optimization.

	---Fragment 1 Intrafragment Coordinates---
	 - Coordinate -           - BOHR/RAD -       - ANG/DEG -
	 R(1,2)           =         2.249234	       1.190243
	 R(1,11)          =         2.919673	       1.545024
	 R(1,13)          =         2.086137	       1.103936
	 R(3,11)          =         3.666687	       1.940327
	 R(4,11)          =         3.630602	       1.921232
	 R(5,6)           =         2.064919	       1.092708
	 R(6,7)           =         2.070811	       1.095826
	 R(6,8)           =         2.059518	       1.089850
	 R(6,9)           =         2.678455	       1.417378
	 R(7,13)          =         4.595540	       2.431855
	 R(9,10)          =         1.820854	       0.963554
	 R(11,12)         =         3.691689	       1.953558
	 B(1,11,3)        =         1.961299	     112.374172
	 B(1,11,4)        =         1.966821	     112.690546
	 B(1,11,12)       =         1.726072	      98.896616
	 B(1,13,7)        =         1.832596	     105.000000
	 B(2,1,11)        =         2.150226	     123.198880
	 B(2,1,13)        =         2.170287	     124.348278
	 B(3,11,4)        =         1.926999	     110.408926
	 B(3,11,12)       =         1.914269	     109.679550
	 B(4,11,12)       =         1.960433	     112.324559
	 B(5,6,7)         =         1.903624	     109.069607
	 B(5,6,8)         =         1.897037	     108.692189
	 B(5,6,9)         =         1.948539	     111.643046
	 B(6,7,13)        =         1.651695	      94.635165
	 B(6,9,10)        =         1.913203	     109.618436
	 B(7,6,8)         =         1.903093	     109.039205
	 B(7,6,9)         =         1.950151	     111.735425
	 B(8,6,9)         =         1.859900	     106.564397
	 B(11,1,13)       =         1.954088	     111.961004
	 D(1,13,7,6)      =         1.270212	      72.777769
	 D(2,1,11,3)      =        -2.767518	    -158.567074
	 D(2,1,11,4)      =        -0.576939	     -33.056176
	 D(2,1,11,12)     =         1.497002	      85.771868
	 D(2,1,13,7)      =         1.105824	      63.359060
	 D(3,11,1,13)     =         0.509126	      29.170796
	 D(4,11,1,13)     =         2.699705	     154.681694
	 D(5,6,7,13)      =        -3.054008	    -174.981795
	 D(5,6,9,10)      =         1.102978	      63.195977
	 D(7,6,9,10)      =        -1.034208	     -59.255773
	 D(7,13,1,11)     =        -2.172655	    -124.483980
	 D(8,6,7,13)      =         1.159993	      66.462689
	 D(8,6,9,10)      =        -3.111328	    -178.265978
	 D(9,6,7,13)      =        -0.891335	     -51.069753
	 D(12,11,1,13)    =        -1.509540	     -86.490262
	 R(1,9)           =         4.614875	       2.442087
	 R(2,6)           =         6.676972	       3.533301
	 R(2,9)           =         5.353542	       2.832973
	 R(3,6)           =         7.224365	       3.822970
	 R(3,9)           =         6.118213	       3.237619
	 R(4,6)           =         8.928265	       4.724634
	 R(4,9)           =         6.413061	       3.393646
	 R(9,11)          =         5.594148	       2.960296

	Current energy   :     -7990.2823547632

	Generating empirical Hessian (Schlegel '84) for each fragment.
	Taking RFO optimization step.
	Going to follow RFO solution 1.
	Using RFO vector 1.
	Norm of target step-size    0.28931
	Projected energy change by RFO approximation:        -0.0010485115

	Back-transformation to cartesian coordinates...
	Could not converge backtransformation.
	Using first guess instead.

	--- Internal Coordinate Step in ANG or DEG, aJ/ANG or AJ/DEG ---
	 ---------------------------------------------------------------------------
	   Coordinate                Previous        Force       Change         New 
	   ----------                --------       ------       ------       ------
	    1 R(1,2)          =      1.190243    -0.003129     0.002885     1.193128
	    2 R(1,11)         =      1.545024     0.011947     0.002957     1.547982
	    3 R(1,13)         =      1.103936     0.004656     0.001771     1.105708
	    4 R(3,11)         =      1.940327    -0.010540    -0.001854     1.938474
	    5 R(4,11)         =      1.921232    -0.000779     0.000507     1.921739
	    6 R(5,6)          =      1.092708     0.001837     0.000805     1.093514
	    7 R(6,7)          =      1.095826     0.000351     0.000548     1.096374
	    8 R(6,8)          =      1.089850    -0.000162     0.001039     1.090889
	    9 R(6,9)          =      1.417378     0.001000     0.001058     1.418435
	   10 R(7,13)         =      2.431855     0.012742     0.043101     2.474955
	   11 R(9,10)         =      0.963554    -0.012962    -0.000384     0.963170
	   12 R(11,12)        =      1.953558     0.034829     0.010410     1.963968
	   13 B(1,11,3)       =    112.374172    -0.000260    -1.474073   110.900099
	   14 B(1,11,4)       =    112.690546    -0.000206    -0.938222   111.752325
	   15 B(1,11,12)      =     98.896616     0.001126     3.692453   102.589068
	   16 B(1,13,7)       =    105.000000    -0.000019     0.460268   105.460268
	   17 B(2,1,11)       =    123.198880    -0.000033     0.082589   123.281468
	   18 B(2,1,13)       =    124.348278    -0.000088    -0.133461   124.214816
	   19 B(3,11,4)       =    110.408926     0.000316     0.883495   111.292421
	   20 B(3,11,12)      =    109.679550    -0.000460    -0.975619   108.703931
	   21 B(4,11,12)      =    112.324559    -0.000499    -1.070127   111.254431
	   22 B(5,6,7)        =    109.069607     0.000029     0.105912   109.175519
	   23 B(5,6,8)        =    108.692189    -0.000008     0.043791   108.735980
	   24 B(5,6,9)        =    111.643046     0.000045     0.207161   111.850207
	   25 B(6,7,13)       =     94.635165     0.000095     0.375012    95.010178
	   26 B(6,9,10)       =    109.618436    -0.000008    -0.058502   109.559934
	   27 B(7,6,8)        =    109.039205    -0.000008    -0.038746   109.000460
	   28 B(7,6,9)        =    111.735425    -0.000066    -0.416184   111.319241
	   29 B(8,6,9)        =    106.564397     0.000006     0.101557   106.665954
	   30 B(11,1,13)      =    111.961004     0.000132     0.540009   112.501013
	   31 D(1,13,7,6)     =     72.777769     0.000008     2.924759    75.702528
	   32 D(2,1,11,3)     =   -158.567074     0.000004     4.956787  -153.610288
	   33 D(2,1,11,4)     =    -33.056176     0.000016     4.256764   -28.799412
	   34 D(2,1,11,12)    =     85.771868     0.000009     4.705238    90.477106
	   35 D(2,1,13,7)     =     63.359060    -0.000024    -6.567900    56.791160
	   36 D(3,11,1,13)    =     29.170796    -0.000014    -2.205244    26.965551
	   37 D(4,11,1,13)    =    154.681694    -0.000002    -2.905267   151.776428
	   38 D(5,6,7,13)     =   -174.981795     0.000005     1.166812  -173.814983
	   39 D(5,6,9,10)     =     63.195977    -0.000003    -1.941019    61.254958
	   40 D(7,6,9,10)     =    -59.255773    -0.000008    -1.926536   -61.182309
	   41 D(7,13,1,11)    =   -124.483980    -0.000005     0.692999  -123.790981
	   42 D(8,6,7,13)     =     66.462689     0.000004     1.074903    67.537592
	   43 D(8,6,9,10)     =   -178.265978     0.000002    -1.709594  -179.975572
	   44 D(9,6,7,13)     =    -51.069753     0.000013     1.221355   -49.848398
	   45 D(12,11,1,13)   =    -86.490262    -0.000009    -2.456793   -88.947055
	   46 R(1,9)          =      2.442087     0.022316     0.059800     2.501887
	   47 R(2,6)          =      3.533301     0.000528    -0.007077     3.526224
	   48 R(2,9)          =      2.832973     0.003761     0.000882     2.833855
	   49 R(3,6)          =      3.822970    -0.001670     0.019453     3.842423
	   50 R(3,9)          =      3.237619    -0.023830    -0.042405     3.195214
	   51 R(4,6)          =      4.724634     0.000505     0.006745     4.731380
	   52 R(4,9)          =      3.393646    -0.011563    -0.009236     3.384410
	   53 R(9,11)         =      2.960296     0.035875     0.032163     2.992459
	 ---------------------------------------------------------------------------
	Successfully symmetrized geometry.

  ==> Convergence Check <==

  Measures of convergence in internal coordinates in au.
  Criteria marked as inactive (o), active & met (*), and active & unmet ( ).
  --------------------------------------------------------------------------------------------- ~
   Step     Total Energy     Delta E     MAX Force     RMS Force      MAX Disp      RMS Disp    ~
  --------------------------------------------------------------------------------------------- ~
    Convergence Criteria    1.00e-06 *    3.00e-04 *             o    1.20e-03 *             o  ~
  --------------------------------------------------------------------------------------------- ~
      1   -7990.28235476   -7.99e+03      1.48e-02      2.79e-03 o    1.15e-01      3.98e-02 o  ~
  ---------------------------------------------------------------------------------------------

	Writing optimization data to binary file.
	Structure for next step:
	Cartesian Geometry (in Angstrom)
	    C     0.0321450709  -0.0284620106  -1.6173081863
	    O    -0.9219551567   0.0956802592  -2.3228838576
	   BR     1.5425737418   0.4283775778   0.7920034732
	   BR    -1.6342863249   0.6284555969   0.6378408485
	    H     1.4654438484   3.7710490511  -2.5797759466
	    C     1.4374761399   2.7160757412  -2.2933824270
	    H     1.3677011713   2.0993097941  -3.1971341791
	    H     2.3609766155   2.4713424080  -1.7667977026
	    O     0.3729820202   2.4403254315  -1.3974063264
	    H    -0.4671470205   2.6426339490  -1.8227901230
	    C    -0.0639458717  -0.2124150292  -0.0833019835
	   BR    -0.1498792132  -2.1650436718   0.1091227171
	    H     1.0767310740  -0.0358142695  -1.9797655996
			--------------------------
			 OPTKING Finished Execution 
			--------------------------

    Structure for next step:
    Molecular point group: c1
    Full point group: C1

    Geometry (in Angstrom), charge = 0, multiplicity = 1:

    C            0.048703633922    -0.008582488479    -1.625649599591
    O           -0.905396593612     0.115559781325    -2.331225270938
    BR           1.559132304878     0.448257099968     0.783662059881
    BR          -1.617727761886     0.648335118987     0.629499435190
    H            1.482002411416     3.790928573259    -2.588117359937
    C            1.454034702932     2.735955263327    -2.301723840307
    H            1.384259734312     2.119189316184    -3.205475592410
    H            2.377535178577     2.491221930135    -1.775139115874
    O            0.389540583283     2.460204953626    -1.405747739736
    H           -0.450588457410     2.662513471148    -1.831131536267
    C           -0.047387308684    -0.192535507092    -0.091643396755
    BR          -0.133320650191    -2.145164149681     0.100781303827
    H            1.093289636999    -0.015934747425    -1.988107012891

gradient() will perform analytic gradient computation.

*** tstart() called on localhost.localdomain
*** at Tue Mar 19 13:17:12 2019

   => Loading Basis Set <=

    Name: ANONYMOUS5BD342C2
    Role: ORBITAL
    Keyword: BASIS
    atoms 1, 6, 11       entry C          line   119 file /root/psi4conda/share/psi4/basis/6-311ppgss.gbs 
    atoms 2, 9           entry O          line   161 file /root/psi4conda/share/psi4/basis/6-311ppgss.gbs 
    atoms 3-4, 12        entry BR         line  1545 file /root/psi4conda/share/psi4/basis/def2-tzvpp.gbs 
    atoms 5, 7-8, 10, 13 entry H          line    42 file /root/psi4conda/share/psi4/basis/6-311ppgss.gbs 


         ---------------------------------------------------------
                                   SCF
            by Justin Turney, Rob Parrish, Andy Simmonett
                             and Daniel Smith
                              RKS Reference
                       32 Threads,    500 MiB Core
         ---------------------------------------------------------

  ==> Geometry <==

    Molecular point group: c1
    Full point group: C1

    Geometry (in Angstrom), charge = 0, multiplicity = 1:

       Center              X                  Y                   Z               Mass       
    ------------   -----------------  -----------------  -----------------  -----------------
         C            0.048703633922    -0.008582488479    -1.625649599591    12.000000000000
         O           -0.905396593612     0.115559781325    -2.331225270938    15.994914619560
         BR           1.559132304878     0.448257099968     0.783662059881    78.918337087000
         BR          -1.617727761886     0.648335118987     0.629499435190    78.918337087000
         H            1.482002411416     3.790928573259    -2.588117359937     1.007825032070
         C            1.454034702932     2.735955263327    -2.301723840307    12.000000000000
         H            1.384259734312     2.119189316184    -3.205475592410     1.007825032070
         H            2.377535178577     2.491221930135    -1.775139115874     1.007825032070
         O            0.389540583283     2.460204953626    -1.405747739736    15.994914619560
         H           -0.450588457410     2.662513471148    -1.831131536267     1.007825032070
         C           -0.047387308684    -0.192535507092    -0.091643396755    12.000000000000
         BR          -0.133320650191    -2.145164149681     0.100781303827    78.918337087000
         H            1.093289636999    -0.015934747425    -1.988107012891     1.007825032070

  Running in c1 symmetry.

  Rotational constants: A =      0.02363  B =      0.01730  C =      0.01500 [cm^-1]
  Rotational constants: A =    708.47397  B =    518.59599  C =    449.56750 [MHz]
  Nuclear repulsion = 1439.794343018812697

  Charge       = 0
  Multiplicity = 1
  Electrons    = 144
  Nalpha       = 72
  Nbeta        = 72

  ==> Algorithm <==

  SCF Algorithm Type is DF.
  DIIS enabled.
  MOM disabled.
  Fractional occupation disabled.
  Guess Type is READ.
  Energy threshold   = 1.00e-08
  Density threshold  = 1.00e-08
  Integral threshold = 0.00e+00

  ==> Primary Basis <==

  Basis Set: ANONYMOUS5BD342C2
    Blend: 6-311PPGSS + DEF2-TZVPP
    Number of shells: 123
    Number of basis function: 289
    Number of Cartesian functions: 315
    Spherical Harmonics?: true
    Max angular momentum: 3

  ==> DFT Potential <==

   => Composite Functional: M06-2X <= 

    Hybrid M06-2X Meta-GGA XC Functional

    Y. Zhao and D. G. Truhlar,  Theor. Chem. Acc., 120, 215, 2008


    Deriv               =              1
    GGA                 =           TRUE
    Meta                =           TRUE

    Exchange Hybrid     =           TRUE
    MP2 Hybrid          =          FALSE

   => Exchange Functionals <=

    1.0000   XC_HYB_MGGA_X_M06_2X

   => Exact (HF) Exchange <=

    0.5400               HF 

   => Correlation Functionals <=

    1.0000   XC_MGGA_C_M06_2X

   => Molecular Quadrature <=

    Radial Scheme       =       TREUTLER
    Pruning Scheme      =           FLAT
    Nuclear Scheme      =       TREUTLER

    BS radius alpha     =              1
    Pruning alpha       =              1
    Radial Points       =             75
    Spherical Points    =            302
    Total Points        =         294009
    Total Blocks        =           2275
    Max Points          =            256
    Max Functions       =            252

   => Loading Basis Set <=

    Name: (ANONYMOUS5BD342C2 AUX)
    Role: JKFIT
    Keyword: DF_BASIS_SCF
    atoms 1, 6, 11       entry C          line   162 file /root/psi4conda/share/psi4/basis/aug-cc-pvtz-jkfit.gbs 
    atoms 2, 9           entry O          line   286 file /root/psi4conda/share/psi4/basis/aug-cc-pvtz-jkfit.gbs 
    atoms 3-4, 12        entry BR         line  3129 file /root/psi4conda/share/psi4/basis/def2-tzvpp-jkfit.gbs 
    atoms 5, 7-8, 10, 13 entry H          line    70 file /root/psi4conda/share/psi4/basis/aug-cc-pvtz-jkfit.gbs 

  Reading orbitals from file 180, no projection.

  ==> Pre-Iterations <==

   -------------------------------------------------------
    Irrep   Nso     Nmo     Nalpha   Nbeta   Ndocc  Nsocc
   -------------------------------------------------------
     A        289     289       0       0       0       0
   -------------------------------------------------------
    Total     289     289      72      72      72       0
   -------------------------------------------------------

  ==> Integral Setup <==

  ==> DiskDFJK: Density-Fitted J/K Matrices <==

    J tasked:                  Yes
    K tasked:                  Yes
    wK tasked:                  No
    OpenMP threads:             32
    Integrals threads:          32
    Memory (MB):               375
    Algorithm:                Disk
    Integral Cache:           NONE
    Schwarz Cutoff:          1E-12
    Fitting Condition:       1E-12

   => Auxiliary Basis Set <=

  Basis Set: (ANONYMOUS5BD342C2 AUX)
    Blend: AUG-CC-PVTZ-JKFIT + DEF2-TZVPP-JKFIT
    Number of shells: 400
    Number of basis function: 1548
    Number of Cartesian functions: 2043
    Spherical Harmonics?: true
    Max angular momentum: 5

  Minimum eigenvalue in the overlap matrix is 7.0219894141E-05.
  Using Symmetric Orthogonalization.

  SCF Guess: Orbitals guess was supplied from a previous computation.

  ==> Iterations <==

                           Total Energy        Delta E     RMS |[F,P]|

   @DF-RKS iter   0: -7990.26528066377523   -7.99027e+03   3.47899e-03 
   @DF-RKS iter   1: -7990.28318767571727   -1.79070e-02   3.66198e-04 
   @DF-RKS iter   2: -7990.28358545784886   -3.97782e-04   1.97253e-04 DIIS
   @DF-RKS iter   3: -7990.28363260435344   -4.71465e-05   1.30394e-04 DIIS
   @DF-RKS iter   4: -7990.28365633756039   -2.37332e-05   3.77297e-05 DIIS
   @DF-RKS iter   5: -7990.28365888219378   -2.54463e-06   1.56878e-05 DIIS
   @DF-RKS iter   6: -7990.28365925650087   -3.74307e-07   4.42481e-06 DIIS
   @DF-RKS iter   7: -7990.28365930608561   -4.95847e-08   2.46851e-06 DIIS
   @DF-RKS iter   8: -7990.28365931806820   -1.19826e-08   6.56786e-07 DIIS
   @DF-RKS iter   9: -7990.28365931915687   -1.08867e-09   4.15392e-07 DIIS
   @DF-RKS iter  10: -7990.28365931961162   -4.54747e-10   1.78975e-07 DIIS
   @DF-RKS iter  11: -7990.28365931974895   -1.37334e-10   5.18327e-08 DIIS
   @DF-RKS iter  12: -7990.28365931976532   -1.63709e-11   1.45461e-08 DIIS
   @DF-RKS iter  13: -7990.28365931976532    0.00000e+00   4.11244e-09 DIIS

  ==> Post-Iterations <==

    Orbital Energies [Eh]
    ---------------------

    Doubly Occupied:                                                      

       1A   -485.398981     2A   -485.396942     3A   -485.394666  
       4A    -63.384397     5A    -63.382364     6A    -63.380063  
       7A    -57.202898     8A    -57.200888     9A    -57.200162  
      10A    -57.200056    11A    -57.198623    12A    -57.198132  
      13A    -57.198023    14A    -57.195784    15A    -57.195745  
      16A    -19.655577    17A    -19.641874    18A    -10.715920  
      19A    -10.673206    20A    -10.594713    21A     -9.049777  
      22A     -9.047799    23A     -9.045508    24A     -6.874401  
      25A     -6.872497    26A     -6.870358    27A     -6.864387  
      28A     -6.864039    29A     -6.862424    30A     -6.862055  
      31A     -6.859946    32A     -6.859804    33A     -2.908182  
      34A     -2.906322    35A     -2.904745    36A     -2.904403  
      37A     -2.904236    38A     -2.902817    39A     -2.902469  
      40A     -2.900456    41A     -2.900326    42A     -2.895080  
      43A     -2.895072    44A     -2.893069    45A     -2.893056  
      46A     -2.890653    47A     -2.890638    48A     -1.214791  
      49A     -1.163953    50A     -0.987289    51A     -0.876970  
      52A     -0.875782    53A     -0.794899    54A     -0.784067  
      55A     -0.662424    56A     -0.605856    57A     -0.583616  
      58A     -0.556999    59A     -0.551283    60A     -0.526750  
      61A     -0.510847    62A     -0.490581    63A     -0.470607  
      64A     -0.429030    65A     -0.395297    66A     -0.387761  
      67A     -0.384848    68A     -0.371896    69A     -0.356316  
      70A     -0.355904    71A     -0.349229    72A     -0.341500  

    Virtual:                                                              

      73A     -0.035218    74A     -0.031021    75A     -0.005550  
      76A      0.011834    77A      0.012501    78A      0.025871  
      79A      0.034996    80A      0.050460    81A      0.051386  
      82A      0.064808    83A      0.069882    84A      0.077426  
      85A      0.087235    86A      0.108667    87A      0.115373  
      88A      0.120852    89A      0.124033    90A      0.130795  
      91A      0.141996    92A      0.150924    93A      0.163216  
      94A      0.174118    95A      0.178989    96A      0.200599  
      97A      0.207424    98A      0.232960    99A      0.236257  
     100A      0.249347   101A      0.255306   102A      0.261238  
     103A      0.265928   104A      0.271962   105A      0.283941  
     106A      0.285734   107A      0.296790   108A      0.300822  
     109A      0.316448   110A      0.320422   111A      0.324816  
     112A      0.330536   113A      0.331982   114A      0.341088  
     115A      0.356404   116A      0.363962   117A      0.376342  
     118A      0.380509   119A      0.390103   120A      0.405228  
     121A      0.413605   122A      0.423966   123A      0.431513  
     124A      0.449509   125A      0.458820   126A      0.477971  
     127A      0.485818   128A      0.497754   129A      0.510324  
     130A      0.534929   131A      0.547611   132A      0.551231  
     133A      0.569009   134A      0.585753   135A      0.596257  
     136A      0.612817   137A      0.626703   138A      0.643156  
     139A      0.671633   140A      0.691341   141A      0.697853  
     142A      0.724741   143A      0.744232   144A      0.777311  
     145A      0.797854   146A      0.829426   147A      0.866844  
     148A      0.893880   149A      0.916021   150A      0.931608  
     151A      0.947705   152A      1.019493   153A      1.029571  
     154A      1.071481   155A      1.097560   156A      1.115948  
     157A      1.144459   158A      1.176690   159A      1.189681  
     160A      1.221569   161A      1.237076   162A      1.252945  
     163A      1.289688   164A      1.303402   165A      1.317879  
     166A      1.342239   167A      1.354907   168A      1.373634  
     169A      1.387390   170A      1.393685   171A      1.397157  
     172A      1.406314   173A      1.409123   174A      1.410925  
     175A      1.422784   176A      1.436498   177A      1.446748  
     178A      1.453121   179A      1.456816   180A      1.477819  
     181A      1.490265   182A      1.496556   183A      1.517855  
     184A      1.522964   185A      1.532275   186A      1.538431  
     187A      1.551659   188A      1.557286   189A      1.561784  
     190A      1.568068   191A      1.573887   192A      1.585915  
     193A      1.588055   194A      1.598257   195A      1.600420  
     196A      1.613827   197A      1.642876   198A      1.670747  
     199A      1.672861   200A      1.684450   201A      1.687745  
     202A      1.701487   203A      1.708253   204A      1.730995  
     205A      1.737033   206A      1.750562   207A      1.766412  
     208A      1.770024   209A      1.780825   210A      1.789019  
     211A      1.808307   212A      1.819714   213A      1.838474  
     214A      1.842730   215A      1.863897   216A      1.876377  
     217A      1.894966   218A      1.955615   219A      1.956134  
     220A      2.029788   221A      2.035550   222A      2.056467  
     223A      2.079244   224A      2.086077   225A      2.103942  
     226A      2.143080   227A      2.174702   228A      2.260264  
     229A      2.275024   230A      2.332781   231A      2.345601  
     232A      2.450136   233A      2.468949   234A      2.493271  
     235A      2.531551   236A      2.540881   237A      2.550314  
     238A      2.610335   239A      2.695047   240A      2.780632  
     241A      2.877449   242A      2.938814   243A      2.950124  
     244A      2.961346   245A      3.064771   246A      3.118450  
     247A      3.182687   248A      3.261926   249A      3.316912  
     250A      3.337531   251A      3.345798   252A      3.409128  
     253A      3.550171   254A      3.594127   255A      3.779219  
     256A      3.801231   257A      3.834325   258A      3.964434  
     259A      3.980131   260A      4.060218   261A      4.072723  
     262A      4.080725   263A      4.088023   264A      4.092540  
     265A      4.127111   266A      4.127670   267A      4.170371  
     268A      4.177191   269A      4.180683   270A      4.208061  
     271A      4.214540   272A      4.241614   273A      4.377392  
     274A      4.481368   275A      4.490273   276A      5.150624  
     277A      5.244707   278A      5.259739   279A      5.532096  
     280A      5.736578   281A      5.804237   282A      7.580365  
     283A      7.593696   284A      7.609116   285A     23.574537  
     286A     23.930643   287A     23.991606   288A     50.014071  
     289A     50.086099  

    Final Occupation by Irrep:
              A 
    DOCC [    72 ]

  Energy converged.

  @DF-RKS Final Energy: -7990.28365931976532

   => Energetics <=

    Nuclear Repulsion Energy =           1439.7943430188126968
    One-Electron Energy =              -13985.2461083158668771
    Two-Electron Energy =                4701.1868456866686756
    DFT Exchange-Correlation Energy =    -146.0187397093807533
    Empirical Dispersion Energy =           0.0000000000000000
    VV10 Nonlocal Energy =                  0.0000000000000000
    Total Energy =                      -7990.2836593197653201



Properties will be evaluated at   0.000000,   0.000000,   0.000000 [a0]

Properties computed using the SCF density matrix

  Nuclear Dipole Moment: [e a0]
     X:     7.1331      Y:    19.2054      Z:   -23.4512

  Electronic Dipole Moment: [e a0]
     X:    -6.4832      Y:   -18.6534      Z:    23.0187

  Dipole Moment: [e a0]
     X:     0.6500      Y:     0.5520      Z:    -0.4326     Total:     0.9562

  Dipole Moment: [D]
     X:     1.6521      Y:     1.4029      Z:    -1.0995     Total:     2.4303


*** tstop() called on localhost.localdomain at Tue Mar 19 13:17:35 2019
Module time:
	user time   =     595.71 seconds =       9.93 minutes
	system time =      21.98 seconds =       0.37 minutes
	total time  =         23 seconds =       0.38 minutes
Total time:
	user time   =    1517.92 seconds =      25.30 minutes
	system time =      58.27 seconds =       0.97 minutes
	total time  =         60 seconds =       1.00 minutes

*** tstart() called on localhost.localdomain
*** at Tue Mar 19 13:17:35 2019


         ------------------------------------------------------------
                                   SCF GRAD                          
                          Rob Parrish, Justin Turney,                
                       Andy Simmonett, and Alex Sokolov              
         ------------------------------------------------------------

  ==> Geometry <==

    Molecular point group: c1
    Full point group: C1

    Geometry (in Angstrom), charge = 0, multiplicity = 1:

       Center              X                  Y                   Z               Mass       
    ------------   -----------------  -----------------  -----------------  -----------------
         C            0.048703633922    -0.008582488479    -1.625649599591    12.000000000000
         O           -0.905396593612     0.115559781325    -2.331225270938    15.994914619560
         BR           1.559132304878     0.448257099968     0.783662059881    78.918337087000
         BR          -1.617727761886     0.648335118987     0.629499435190    78.918337087000
         H            1.482002411416     3.790928573259    -2.588117359937     1.007825032070
         C            1.454034702932     2.735955263327    -2.301723840307    12.000000000000
         H            1.384259734312     2.119189316184    -3.205475592410     1.007825032070
         H            2.377535178577     2.491221930135    -1.775139115874     1.007825032070
         O            0.389540583283     2.460204953626    -1.405747739736    15.994914619560
         H           -0.450588457410     2.662513471148    -1.831131536267     1.007825032070
         C           -0.047387308684    -0.192535507092    -0.091643396755    12.000000000000
         BR          -0.133320650191    -2.145164149681     0.100781303827    78.918337087000
         H            1.093289636999    -0.015934747425    -1.988107012891     1.007825032070

  Nuclear repulsion = 1439.794343018812697

  ==> Basis Set <==

  Basis Set: ANONYMOUS5BD342C2
    Blend: 6-311PPGSS + DEF2-TZVPP
    Number of shells: 123
    Number of basis function: 289
    Number of Cartesian functions: 315
    Spherical Harmonics?: true
    Max angular momentum: 3

  ==> DFJKGrad: Density-Fitted SCF Gradients <==

    Gradient:                    1
    J tasked:                  Yes
    K tasked:                  Yes
    wK tasked:                  No
    OpenMP threads:             32
    Integrals threads:          32
    Memory (MB):               375
    Schwarz Cutoff:          0E+00
    Fitting Condition:       1E-12

   => Auxiliary Basis Set <=

  Basis Set: (ANONYMOUS5BD342C2 AUX)
    Blend: AUG-CC-PVTZ-JKFIT + DEF2-TZVPP-JKFIT
    Number of shells: 400
    Number of basis function: 1548
    Number of Cartesian functions: 2043
    Spherical Harmonics?: true
    Max angular momentum: 5

  ==> DFT Potential <==

   => Composite Functional: M06-2X <= 

    Hybrid M06-2X Meta-GGA XC Functional

    Y. Zhao and D. G. Truhlar,  Theor. Chem. Acc., 120, 215, 2008


    Deriv               =              1
    GGA                 =           TRUE
    Meta                =           TRUE

    Exchange Hybrid     =           TRUE
    MP2 Hybrid          =          FALSE

   => Exchange Functionals <=

    1.0000   XC_HYB_MGGA_X_M06_2X

   => Exact (HF) Exchange <=

    0.5400               HF 

   => Correlation Functionals <=

    1.0000   XC_MGGA_C_M06_2X

   => Molecular Quadrature <=

    Radial Scheme       =       TREUTLER
    Pruning Scheme      =           FLAT
    Nuclear Scheme      =       TREUTLER

    BS radius alpha     =              1
    Pruning alpha       =              1
    Radial Points       =             75
    Spherical Points    =            302
    Total Points        =         294009
    Total Blocks        =           2275
    Max Points          =            256
    Max Functions       =            252


  -Total Gradient:
     Atom            X                  Y                   Z
    ------   -----------------  -----------------  -----------------
       1        0.003910530011    -0.007721359839     0.001968370959
       2       -0.005450249385     0.005022559189    -0.003685471654
       3        0.000430203141    -0.000330719910     0.001964282985
       4        0.000138888501     0.000640691525     0.000771443180
       5       -0.000019250370     0.000375804392    -0.000227013467
       6        0.000578686678     0.000075419737    -0.000086194640
       7       -0.000375052221    -0.000592223717     0.000162809838
       8        0.000575116466    -0.000224435265     0.000235176903
       9       -0.000583098335    -0.004529593143    -0.000555932550
      10       -0.001295702360     0.000235831628    -0.000450978876
      11       -0.000170260268     0.004188733152    -0.000632995219
      12        0.000691494137    -0.001110225456    -0.000612132932
      13        0.001534807206     0.004244359290    -0.000349396416


*** tstop() called on localhost.localdomain at Tue Mar 19 13:17:49 2019
Module time:
	user time   =     246.40 seconds =       4.11 minutes
	system time =      10.48 seconds =       0.17 minutes
	total time  =         14 seconds =       0.23 minutes
Total time:
	user time   =    1764.40 seconds =      29.41 minutes
	system time =      68.76 seconds =       1.15 minutes
	total time  =         74 seconds =       1.23 minutes

			-----------------------------------------
			 OPTKING 2.0: for geometry optimizations 
			  - R.A. King,  Bethel University        
			-----------------------------------------

	Previous internal coordinate definitions found.
	---Fragment 1 Geometry and Gradient---
	 C           0.0920365298       -0.0162185528       -3.0720325313
	 O          -1.7109516036        0.2183763387       -4.4053773161
	 BR          2.9463330612        0.8470831561        1.4809066739
	 BR         -3.0570624275        1.2251758172        1.1895815333
	 H           2.8005786859        7.1638167928       -4.8908330100
	 C           2.7477273763        5.1702061595       -4.3496276917
	 H           2.6158717946        4.0046874313       -6.0574709953
	 H           4.4928903588        4.7077271842       -3.3545267768
	 O           0.7361250200        4.6491135931       -2.6564782400
	 H          -0.8514887831        5.0314212856       -3.4603371168
	 C          -0.0895490356       -0.3638393793       -0.1731809218
	 BR         -0.2519395167       -4.0537727530        0.1904490635
	 H           2.0660179978       -0.0301123086       -3.7569777772
	             0.0039105300       -0.0077213598        0.0019683710
	            -0.0054502494        0.0050225592       -0.0036854717
	             0.0004302031       -0.0003307199        0.0019642830
	             0.0001388885        0.0006406915        0.0007714432
	            -0.0000192504        0.0003758044       -0.0002270135
	             0.0005786867        0.0000754197       -0.0000861946
	            -0.0003750522       -0.0005922237        0.0001628098
	             0.0005751165       -0.0002244353        0.0002351769
	            -0.0005830983       -0.0045295931       -0.0005559326
	            -0.0012957024        0.0002358316       -0.0004509789
	            -0.0001702603        0.0041887332       -0.0006329952
	             0.0006914941       -0.0011102255       -0.0006121329
	             0.0015348072        0.0042443593       -0.0003493964

	---Fragment 1 Intrafragment Coordinates---
	 - Coordinate -           - BOHR/RAD -       - ANG/DEG -
	 R(1,2)           =         2.254686	       1.193128
	 R(1,11)          =         2.925261	       1.547982
	 R(1,13)          =         2.089485	       1.105708
	 R(3,11)          =         3.663184	       1.938474
	 R(4,11)          =         3.631560	       1.921739
	 R(5,6)           =         2.066441	       1.093514
	 R(6,7)           =         2.071847	       1.096374
	 R(6,8)           =         2.061482	       1.090889
	 R(6,9)           =         2.680455	       1.418435
	 R(7,13)          =         4.676988	       2.474955
	 R(9,10)          =         1.820128	       0.963170
	 R(11,12)         =         3.711362	       1.963968
	 B(1,11,3)        =         1.935572	     110.900099
	 B(1,11,4)        =         1.950446	     111.752325
	 B(1,11,12)       =         1.790517	     102.589068
	 B(1,13,7)        =         1.840629	     105.460268
	 B(2,1,11)        =         2.151668	     123.281468
	 B(2,1,13)        =         2.167958	     124.214816
	 B(3,11,4)        =         1.942419	     111.292421
	 B(3,11,12)       =         1.897242	     108.703931
	 B(4,11,12)       =         1.941756	     111.254431
	 B(5,6,7)         =         1.905472	     109.175519
	 B(5,6,8)         =         1.897801	     108.735980
	 B(5,6,9)         =         1.952154	     111.850207
	 B(6,7,13)        =         1.658240	      95.010178
	 B(6,9,10)        =         1.912182	     109.559934
	 B(7,6,8)         =         1.902417	     109.000460
	 B(7,6,9)         =         1.942887	     111.319241
	 B(8,6,9)         =         1.861672	     106.665954
	 B(11,1,13)       =         1.963513	     112.501013
	 D(1,13,7,6)      =         1.321258	      75.702528
	 D(2,1,11,3)      =        -2.681005	    -153.610288
	 D(2,1,11,4)      =        -0.502645	     -28.799412
	 D(2,1,11,12)     =         1.579123	      90.477106
	 D(2,1,13,7)      =         0.991193	      56.791160
	 D(3,11,1,13)     =         0.470638	      26.965551
	 D(4,11,1,13)     =         2.648998	     151.776428
	 D(5,6,7,13)      =        -3.033644	    -173.814983
	 D(5,6,9,10)      =         1.069101	      61.254958
	 D(7,6,9,10)      =        -1.067833	     -61.182309
	 D(7,13,1,11)     =        -2.160560	    -123.790981
	 D(8,6,7,13)      =         1.178753	      67.537592
	 D(8,6,9,10)      =        -3.141166	    -179.975572
	 D(9,6,7,13)      =        -0.870019	     -49.848398
	 D(12,11,1,13)    =        -1.552419	     -88.947055
	 R(1,9)           =         4.727881	       2.501887
	 R(2,6)           =         6.663598	       3.526224
	 R(2,9)           =         5.355209	       2.833855
	 R(3,6)           =         7.261127	       3.842423
	 R(3,9)           =         6.038080	       3.195214
	 R(4,6)           =         8.941012	       4.731380
	 R(4,9)           =         6.395608	       3.384410
	 R(9,11)          =         5.654927	       2.992459

	Current energy   :     -7990.2836593198

	Energy change for the previous step:
		Projected    :        -0.0010485115
		Actual       :        -0.0013045566
	Energy ratio indicates good step: Trust radius increased to 1.000e+00.


	Performing BFGS update.
	Previous computed or guess Hessian on step 1.
	Steps to be used in Hessian update: 1
	Taking RFO optimization step.
	Going to follow RFO solution 1.
	Using RFO vector 1.
	Norm of target step-size    0.27551
	Projected energy change by RFO approximation:         0.0012779271

	Back-transformation to cartesian coordinates...
	Successfully converged to displaced geometry.

	--- Internal Coordinate Step in ANG or DEG, aJ/ANG or AJ/DEG ---
	 ---------------------------------------------------------------------------
	   Coordinate                Previous        Force       Change         New 
	   ----------                --------       ------       ------       ------
	    1 R(1,2)          =      1.193128    -0.058173    -0.002844     1.190285
	    2 R(1,11)         =      1.547982    -0.013263    -0.003264     1.544718
	    3 R(1,13)         =      1.105708    -0.009954    -0.003364     1.102343
	    4 R(3,11)         =      1.938474    -0.005262    -0.002756     1.935717
	    5 R(4,11)         =      1.921739    -0.003584    -0.000603     1.921135
	    6 R(5,6)          =      1.093514    -0.002944    -0.000088     1.093426
	    7 R(6,7)          =      1.096374     0.003120     0.001395     1.097769
	    8 R(6,8)          =      1.090889    -0.005692    -0.000456     1.090433
	    9 R(6,9)          =      1.418435     0.001657     0.000890     1.419326
	   10 R(7,13)         =      2.474955     0.011060     0.040474     2.515430
	   11 R(9,10)         =      0.963170    -0.011137    -0.001520     0.961651
	   12 R(11,12)        =      1.963968    -0.008299     0.004549     1.968517
	   13 B(1,11,3)       =    110.900099    -0.000107    -1.898210   109.001889
	   14 B(1,11,4)       =    111.752325    -0.000098    -1.119135   110.633189
	   15 B(1,11,12)      =    102.589068     0.000111     2.852834   105.441902
	   16 B(1,13,7)       =    105.460268    -0.000067    -1.770787   103.689481
	   17 B(2,1,11)       =    123.281468    -0.000048     0.030907   123.312375
	   18 B(2,1,13)       =    124.214816     0.000004    -1.007107   123.207710
	   19 B(3,11,4)       =    111.292421     0.000160     0.774902   112.067323
	   20 B(3,11,12)      =    108.703931     0.000007     0.146002   108.849933
	   21 B(4,11,12)      =    111.254431    -0.000080    -0.642864   110.611567
	   22 B(5,6,7)        =    109.175519     0.000009    -0.122220   109.053299
	   23 B(5,6,8)        =    108.735980    -0.000006    -0.225553   108.510427
	   24 B(5,6,9)        =    111.850207     0.000006    -0.148048   111.702159
	   25 B(6,7,13)       =     95.010178     0.000070     0.834415    95.844592
	   26 B(6,9,10)       =    109.559934    -0.000034    -0.213741   109.346192
	   27 B(7,6,8)        =    109.000460    -0.000003    -0.184409   108.816051
	   28 B(7,6,9)        =    111.319241     0.000009     0.802062   112.121303
	   29 B(8,6,9)        =    106.665954    -0.000017    -0.151577   106.514378
	   30 B(11,1,13)      =    112.501013     0.000041     0.566069   113.067082
	   31 D(1,13,7,6)     =     75.702528    -0.000001    -1.875875    73.826653
	   32 D(2,1,11,3)     =   -153.610288    -0.000035    -3.161749  -156.772037
	   33 D(2,1,11,4)     =    -28.799412    -0.000022    -4.313651   -33.113062
	   34 D(2,1,11,12)    =     90.477106    -0.000040    -3.969306    86.507800
	   35 D(2,1,13,7)     =     56.791160     0.000034     5.416374    62.207534
	   36 D(3,11,1,13)    =     26.965551     0.000015     3.433547    30.399098
	   37 D(4,11,1,13)    =    151.776428     0.000028     2.281645   154.058073
	   38 D(5,6,7,13)     =   -173.814983     0.000003    -0.019816  -173.834800
	   39 D(5,6,9,10)     =     61.254958     0.000003    -0.645530    60.609428
	   40 D(7,6,9,10)     =    -61.182309    -0.000003    -0.963454   -62.145762
	   41 D(7,13,1,11)    =   -123.790981    -0.000017    -1.163988  -124.954969
	   42 D(8,6,7,13)     =     67.537592     0.000004     0.429459    67.967051
	   43 D(8,6,9,10)     =   -179.975572    -0.000001    -1.094810  -181.070382
	   44 D(9,6,7,13)     =    -49.848398     0.000008     0.255605   -49.592793
	   45 D(12,11,1,13)   =    -88.947055     0.000011     2.625990   -86.321065
	   46 R(1,9)          =      2.501887     0.019294     0.024508     2.526394
	   47 R(2,6)          =      3.526224    -0.008665     0.040163     3.566388
	   48 R(2,9)          =      2.833855     0.010367     0.066744     2.900598
	   49 R(3,6)          =      3.842423    -0.002435    -0.012077     3.830346
	   50 R(3,9)          =      3.195214    -0.010634    -0.010930     3.184284
	   51 R(4,6)          =      4.731380    -0.001620     0.003872     4.735252
	   52 R(4,9)          =      3.384410     0.000392     0.009437     3.393847
	   53 R(9,11)         =      2.992459     0.019018     0.043223     3.035682
	 ---------------------------------------------------------------------------
	Successfully symmetrized geometry.

  ==> Convergence Check <==

  Measures of convergence in internal coordinates in au.
  Criteria marked as inactive (o), active & met (*), and active & unmet ( ).
  ---------------------------------------------------------------------------------------------
   Step     Total Energy     Delta E     MAX Force     RMS Force      MAX Disp      RMS Disp   
  ---------------------------------------------------------------------------------------------
    Convergence Criteria    1.00e-06 *    3.00e-04 *             o    1.20e-03 *             o
  ---------------------------------------------------------------------------------------------
      2   -7990.28365932   -1.30e-03      7.06e-03      1.43e-03 o    1.26e-01      3.79e-02 o  ~
  ---------------------------------------------------------------------------------------------

	Writing optimization data to binary file.
	Structure for next step:
	Cartesian Geometry (in Angstrom)
	    C     0.0792994480  -0.0197810428  -1.5882257749
	    O    -0.8780469280   0.0129137982  -2.2947643534
	   BR     1.6046253055   0.5155289338   0.7499680409
	   BR    -1.5902624667   0.6272618371   0.6393937622
	    H     1.3994239082   3.8011452118  -2.6681482712
	    C     1.4019907156   2.7546969080  -2.3510992592
	    H     1.3404781135   2.1112622893  -3.2384018504
	    H     2.3403624520   2.5519385419  -1.8339996980
	    O     0.3631198399   2.4851343764  -1.4223537348
	    H    -0.4869001308   2.6677495975  -1.8333154626
	    C    -0.0026411713  -0.2010671296  -0.0563728782
	   BR    -0.0495669273  -2.1466701062   0.2394072139
	    H     1.1121952560  -0.0501646002  -1.9721054001
			--------------------------
			 OPTKING Finished Execution 
			--------------------------

    Structure for next step:
    Molecular point group: c1
    Full point group: C1

    Geometry (in Angstrom), charge = 0, multiplicity = 1:

    C            0.039014823453    -0.027226269372    -1.618892509512
    O           -0.918331552614     0.005468571647    -2.325431087965
    BR           1.564340680870     0.508083707161     0.719301306300
    BR          -1.630547091269     0.619816610535     0.608727027648
    H            1.359139283586     3.793699985240    -2.698815005716
    C            1.361706090968     2.747251681401    -2.381765993729
    H            1.300193488935     2.103817062680    -3.269068584935
    H            2.300077827373     2.544493315337    -1.864666432606
    O            0.322835215298     2.477689149815    -1.453020469390
    H           -0.527184755417     2.660304370893    -1.863982197142
    C           -0.042925795839    -0.208512356166    -0.087039612814
    BR          -0.089851551872    -2.154115332848     0.208740479362
    H            1.071910631418    -0.057609826819    -2.002772134654

gradient() will perform analytic gradient computation.

*** tstart() called on localhost.localdomain
*** at Tue Mar 19 13:17:49 2019

   => Loading Basis Set <=

    Name: ANONYMOUS5BD342C2
    Role: ORBITAL
    Keyword: BASIS
    atoms 1, 6, 11       entry C          line   119 file /root/psi4conda/share/psi4/basis/6-311ppgss.gbs 
    atoms 2, 9           entry O          line   161 file /root/psi4conda/share/psi4/basis/6-311ppgss.gbs 
    atoms 3-4, 12        entry BR         line  1545 file /root/psi4conda/share/psi4/basis/def2-tzvpp.gbs 
    atoms 5, 7-8, 10, 13 entry H          line    42 file /root/psi4conda/share/psi4/basis/6-311ppgss.gbs 


         ---------------------------------------------------------
                                   SCF
            by Justin Turney, Rob Parrish, Andy Simmonett
                             and Daniel Smith
                              RKS Reference
                       32 Threads,    500 MiB Core
         ---------------------------------------------------------

  ==> Geometry <==

    Molecular point group: c1
    Full point group: C1

    Geometry (in Angstrom), charge = 0, multiplicity = 1:

       Center              X                  Y                   Z               Mass       
    ------------   -----------------  -----------------  -----------------  -----------------
         C            0.039014823453    -0.027226269372    -1.618892509512    12.000000000000
         O           -0.918331552614     0.005468571647    -2.325431087965    15.994914619560
         BR           1.564340680870     0.508083707161     0.719301306300    78.918337087000
         BR          -1.630547091269     0.619816610535     0.608727027648    78.918337087000
         H            1.359139283586     3.793699985240    -2.698815005716     1.007825032070
         C            1.361706090968     2.747251681401    -2.381765993729    12.000000000000
         H            1.300193488935     2.103817062680    -3.269068584935     1.007825032070
         H            2.300077827373     2.544493315337    -1.864666432606     1.007825032070
         O            0.322835215298     2.477689149815    -1.453020469390    15.994914619560
         H           -0.527184755417     2.660304370893    -1.863982197142     1.007825032070
         C           -0.042925795839    -0.208512356166    -0.087039612814    12.000000000000
         BR          -0.089851551872    -2.154115332848     0.208740479362    78.918337087000
         H            1.071910631418    -0.057609826819    -2.002772134654     1.007825032070

  Running in c1 symmetry.

  Rotational constants: A =      0.02400  B =      0.01720  C =      0.01475 [cm^-1]
  Rotational constants: A =    719.59259  B =    515.70843  C =    442.08824 [MHz]
  Nuclear repulsion = 1438.095052286970258

  Charge       = 0
  Multiplicity = 1
  Electrons    = 144
  Nalpha       = 72
  Nbeta        = 72

  ==> Algorithm <==

  SCF Algorithm Type is DF.
  DIIS enabled.
  MOM disabled.
  Fractional occupation disabled.
  Guess Type is READ.
  Energy threshold   = 1.00e-08
  Density threshold  = 1.00e-08
  Integral threshold = 0.00e+00

  ==> Primary Basis <==

  Basis Set: ANONYMOUS5BD342C2
    Blend: 6-311PPGSS + DEF2-TZVPP
    Number of shells: 123
    Number of basis function: 289
    Number of Cartesian functions: 315
    Spherical Harmonics?: true
    Max angular momentum: 3

  ==> DFT Potential <==

   => Composite Functional: M06-2X <= 

    Hybrid M06-2X Meta-GGA XC Functional

    Y. Zhao and D. G. Truhlar,  Theor. Chem. Acc., 120, 215, 2008


    Deriv               =              1
    GGA                 =           TRUE
    Meta                =           TRUE

    Exchange Hybrid     =           TRUE
    MP2 Hybrid          =          FALSE

   => Exchange Functionals <=

    1.0000   XC_HYB_MGGA_X_M06_2X

   => Exact (HF) Exchange <=

    0.5400               HF 

   => Correlation Functionals <=

    1.0000   XC_MGGA_C_M06_2X

   => Molecular Quadrature <=

    Radial Scheme       =       TREUTLER
    Pruning Scheme      =           FLAT
    Nuclear Scheme      =       TREUTLER

    BS radius alpha     =              1
    Pruning alpha       =              1
    Radial Points       =             75
    Spherical Points    =            302
    Total Points        =         294013
    Total Blocks        =           2285
    Max Points          =            256
    Max Functions       =            250

   => Loading Basis Set <=

    Name: (ANONYMOUS5BD342C2 AUX)
    Role: JKFIT
    Keyword: DF_BASIS_SCF
    atoms 1, 6, 11       entry C          line   162 file /root/psi4conda/share/psi4/basis/aug-cc-pvtz-jkfit.gbs 
    atoms 2, 9           entry O          line   286 file /root/psi4conda/share/psi4/basis/aug-cc-pvtz-jkfit.gbs 
    atoms 3-4, 12        entry BR         line  3129 file /root/psi4conda/share/psi4/basis/def2-tzvpp-jkfit.gbs 
    atoms 5, 7-8, 10, 13 entry H          line    70 file /root/psi4conda/share/psi4/basis/aug-cc-pvtz-jkfit.gbs 

  Reading orbitals from file 180, no projection.

  ==> Pre-Iterations <==

   -------------------------------------------------------
    Irrep   Nso     Nmo     Nalpha   Nbeta   Ndocc  Nsocc
   -------------------------------------------------------
     A        289     289       0       0       0       0
   -------------------------------------------------------
    Total     289     289      72      72      72       0
   -------------------------------------------------------

  ==> Integral Setup <==

  ==> DiskDFJK: Density-Fitted J/K Matrices <==

    J tasked:                  Yes
    K tasked:                  Yes
    wK tasked:                  No
    OpenMP threads:             32
    Integrals threads:          32
    Memory (MB):               375
    Algorithm:                Disk
    Integral Cache:           NONE
    Schwarz Cutoff:          1E-12
    Fitting Condition:       1E-12

   => Auxiliary Basis Set <=

  Basis Set: (ANONYMOUS5BD342C2 AUX)
    Blend: AUG-CC-PVTZ-JKFIT + DEF2-TZVPP-JKFIT
    Number of shells: 400
    Number of basis function: 1548
    Number of Cartesian functions: 2043
    Spherical Harmonics?: true
    Max angular momentum: 5

  Minimum eigenvalue in the overlap matrix is 7.0777167125E-05.
  Using Symmetric Orthogonalization.

  SCF Guess: Orbitals guess was supplied from a previous computation.

  ==> Iterations <==

                           Total Energy        Delta E     RMS |[F,P]|

   @DF-RKS iter   0: -7990.27645049851162   -7.99028e+03   2.23191e-03 
   @DF-RKS iter   1: -7990.28350786872397   -7.05737e-03   1.65388e-04 
   @DF-RKS iter   2: -7990.28392148809235   -4.13619e-04   6.80434e-05 DIIS
   @DF-RKS iter   3: -7990.28396943392727   -4.79458e-05   6.17321e-05 DIIS
   @DF-RKS iter   4: -7990.28399120563790   -2.17717e-05   2.35350e-05 DIIS
   @DF-RKS iter   5: -7990.28399457502837   -3.36939e-06   1.46830e-05 DIIS
   @DF-RKS iter   6: -7990.28399498069575   -4.05667e-07   2.91354e-06 DIIS
   @DF-RKS iter   7: -7990.28399501904278   -3.83470e-08   1.34585e-06 DIIS
   @DF-RKS iter   8: -7990.28399502220054   -3.15777e-09   4.97941e-07 DIIS
   @DF-RKS iter   9: -7990.28399502252887   -3.28328e-10   1.27320e-07 DIIS
   @DF-RKS iter  10: -7990.28399502260072   -7.18501e-11   6.72808e-08 DIIS
   @DF-RKS iter  11: -7990.28399502260982   -9.09495e-12   9.45954e-09 DIIS

  ==> Post-Iterations <==

    Orbital Energies [Eh]
    ---------------------

    Doubly Occupied:                                                      

       1A   -485.399285     2A   -485.396138     3A   -485.394306  
       4A    -63.384648     5A    -63.381604     6A    -63.379733  
       7A    -57.203183     8A    -57.200402     9A    -57.200301  
      10A    -57.200113    11A    -57.198284    12A    -57.197369  
      13A    -57.197270    14A    -57.195450    15A    -57.195418  
      16A    -19.655970    17A    -19.643105    18A    -10.715824  
      19A    -10.671753    20A    -10.594915    21A     -9.049982  
      22A     -9.047070    23A     -9.045201    24A     -6.874686  
      25A     -6.871742    26A     -6.870038    27A     -6.864532  
      28A     -6.864208    29A     -6.861700    30A     -6.861364  
      31A     -6.859640    32A     -6.859516    33A     -2.908467  
      34A     -2.905572    35A     -2.904971    36A     -2.904648  
      37A     -2.903912    38A     -2.902062    39A     -2.901746  
      40A     -2.900137    41A     -2.900027    42A     -2.895200  
      43A     -2.895190    44A     -2.892377    45A     -2.892364  
[...]
	 H           2.6463209107        7.2975652565       -5.1822358620
	 C           2.6449850909        5.3058346254       -4.6299241593
	 H           2.2364480613        4.1418569984       -6.2926100170
	 H           4.5181680992        4.8244121752       -3.9209741196
	 O           0.9192444540        4.8277392908       -2.6379903559
	 H          -0.7727573852        5.1231029952       -3.2303933700
	 C          -0.0637920366       -0.4384403321       -0.1441020360
	 BR         -0.2983920915       -4.0846142432        0.4299432464
	 H           2.2674341616       -0.5777778434       -3.6112115485
	             0.0000202724        0.0001029489       -0.0001683230
	            -0.0000970077       -0.0000736702       -0.0001656025
	            -0.0000165100        0.0000257640       -0.0003089391
	            -0.0000596359       -0.0001283121       -0.0000687711
	             0.0000644637        0.0000809706       -0.0000450784
	             0.0000816788        0.0000267511        0.0001504043
	            -0.0000106982        0.0001036185       -0.0001747121
	             0.0000534667        0.0000158031       -0.0000544045
	             0.0000979843       -0.0001048736       -0.0001013833
	            -0.0000208847        0.0000294713       -0.0000528528
	            -0.0000314578        0.0000235186       -0.0001559511
	            -0.0000357029       -0.0000583065       -0.0002499496
	             0.0000222233        0.0001465087       -0.0001847935

	---Fragment 1 Intrafragment Coordinates---
	 - Coordinate -           - BOHR/RAD -       - ANG/DEG -
	 R(1,2)           =         2.246625	       1.188863
	 R(1,11)          =         2.918602	       1.544458
	 R(1,13)          =         2.087073	       1.104432
	 R(3,11)          =         3.656671	       1.935027
	 R(4,11)          =         3.632319	       1.922140
	 R(5,6)           =         2.066892	       1.093752
	 R(6,7)           =         2.070331	       1.095572
	 R(6,8)           =         2.059901	       1.090053
	 R(6,9)           =         2.678536	       1.417420
	 R(7,13)          =         5.428242	       2.872502
	 R(9,10)          =         1.816880	       0.961451
	 R(11,12)         =         3.698533	       1.957180
	 B(1,11,3)        =         1.908842	     109.368589
	 B(1,11,4)        =         1.947548	     111.586257
	 B(1,11,12)       =         1.800902	     103.184082
	 B(1,13,7)        =         1.561611	      89.473740
	 B(2,1,11)        =         2.160205	     123.770629
	 B(2,1,13)        =         2.163109	     123.936994
	 B(3,11,4)        =         1.953674	     111.937261
	 B(3,11,12)       =         1.910439	     109.460109
	 B(4,11,12)       =         1.936301	     110.941893
	 B(5,6,7)         =         1.904238	     109.104822
	 B(5,6,8)         =         1.892932	     108.456996
	 B(5,6,9)         =         1.951031	     111.785820
	 B(6,7,13)        =         1.661912	      95.220553
	 B(6,9,10)        =         1.905521	     109.178330
	 B(7,6,8)         =         1.901223	     108.932063
	 B(7,6,9)         =         1.949537	     111.700270
	 B(8,6,9)         =         1.863168	     106.751650
	 B(11,1,13)       =         1.958051	     112.188085
	 D(1,13,7,6)      =         1.445070	      82.796399
	 D(2,1,11,3)      =        -2.584592	    -148.086241
	 D(2,1,11,4)      =        -0.413413	     -23.686833
	 D(2,1,11,12)     =         1.666571	      95.487475
	 D(2,1,13,7)      =         0.996476	      57.093887
	 D(3,11,1,13)     =         0.619633	      35.502344
	 D(4,11,1,13)     =         2.790812	     159.901752
	 D(5,6,7,13)      =        -3.096755	    -177.431010
	 D(5,6,9,10)      =         1.141436	      65.399463
	 D(7,6,9,10)      =        -0.997912	     -57.176166
	 D(7,13,1,11)     =        -2.207871	    -126.501704
	 D(8,6,7,13)      =         1.122924	      64.338783
	 D(8,6,9,10)      =        -3.074446	    -176.152763
	 D(9,6,7,13)      =        -0.930884	     -53.335698
	 D(12,11,1,13)    =        -1.412389	     -80.923939
	 R(1,9)           =         5.123019	       2.710985
	 R(2,6)           =         6.587548	       3.485980
	 R(2,9)           =         5.571940	       2.948544
	 R(3,6)           =         7.598630	       4.021022
	 R(3,9)           =         6.085282	       3.220192
	 R(4,6)           =         8.973109	       4.748365
	 R(4,9)           =         6.464038	       3.420621
	 R(9,11)          =         5.909187	       3.127007

	Current energy   :     -7990.2849187705

	Energy change for the previous step:
		Projected    :        -0.0000043194
		Actual       :        -0.0000025655

	Performing BFGS update.
	Previous computed or guess Hessian on step 1.
	Steps to be used in Hessian update: 20 19
	Taking RFO optimization step.
	Going to follow RFO solution 1.
	Using RFO vector 1.

	Determining step-restricting scale parameter for RS-RFO.
	Maximum step size allowed    0.00879

	 Iter      |step|        alpha        rfo_root  
	------------------------------------------------
	    0     0.72188       1.00000           1
	    1     0.42637       3.75793           1
	    2     0.24998      12.30533           1
	    3     0.14681      37.79794           1
	    4     0.08700     111.79052           1
	    5     0.05232     319.46586           1
	    6     0.03220     867.76495           1
	    7     0.02061    2164.03230           1
	    8     0.01409    4699.18666           1
	    9     0.01065    8287.93874           1
	   10     0.00917   11213.34892           1
	   11     0.00881   12148.21770           1
	   12     0.00879   12209.39530           1
	------------------------------------------------
	Norm of target step-size    0.00879
	Projected energy change by RFO approximation:        -0.0000020220

	Back-transformation to cartesian coordinates...
	Could not converge backtransformation.
	Using first guess instead.

	--- Internal Coordinate Step in ANG or DEG, aJ/ANG or AJ/DEG ---
	 ---------------------------------------------------------------------------
	   Coordinate                Previous        Force       Change         New 
	   ----------                --------       ------       ------       ------
	    1 R(1,2)          =      1.188863    -0.000098     0.000031     1.188894
	    2 R(1,11)         =      1.544458    -0.000190    -0.000038     1.544419
	    3 R(1,13)         =      1.104432    -0.000029     0.000005     1.104437
	    4 R(3,11)         =      1.935027    -0.000013     0.000011     1.935038
	    5 R(4,11)         =      1.922140     0.000300    -0.000038     1.922103
	    6 R(5,6)          =      1.093752    -0.000218    -0.000014     1.093737
	    7 R(6,7)          =      1.095572    -0.000382     0.000001     1.095573
	    8 R(6,8)          =      1.090053    -0.000344     0.000003     1.090055
	    9 R(6,9)          =      1.417420     0.000228     0.000064     1.417485
	   10 R(7,13)         =      2.872502     0.000173     0.000439     2.872941
	   11 R(9,10)         =      0.961451    -0.000260     0.000011     0.961462
	   12 R(11,12)        =      1.957180    -0.000120     0.000001     1.957181
	   13 B(1,11,3)       =    109.368589    -0.000000    -0.005341   109.363249
	   14 B(1,11,4)       =    111.586257     0.000001     0.007811   111.594068
	   15 B(1,11,12)      =    103.184082    -0.000001    -0.004210   103.179872
	   16 B(1,13,7)       =     89.473740    -0.000007    -0.129922    89.343818
	   17 B(2,1,11)       =    123.770629     0.000001     0.001818   123.772446
	   18 B(2,1,13)       =    123.936994    -0.000001    -0.005898   123.931096
	   19 B(3,11,4)       =    111.937261    -0.000001     0.001779   111.939041
	   20 B(3,11,12)      =    109.460109     0.000000    -0.000042   109.460067
	   21 B(4,11,12)      =    110.941893     0.000000    -0.000609   110.941284
	   22 B(5,6,7)        =    109.104822     0.000002     0.008976   109.113798
	   23 B(5,6,8)        =    108.456996     0.000001     0.003962   108.460958
	   24 B(5,6,9)        =    111.785820    -0.000001     0.002599   111.788420
	   25 B(6,7,13)       =     95.220553     0.000010     0.156951    95.377505
	   26 B(6,9,10)       =    109.178330    -0.000003    -0.009009   109.169321
	   27 B(7,6,8)        =    108.932063     0.000001    -0.000620   108.931443
	   28 B(7,6,9)        =    111.700270    -0.000002    -0.013104   111.687166
	   29 B(8,6,9)        =    106.751650    -0.000001    -0.001712   106.749938
	   30 B(11,1,13)      =    112.188085    -0.000000     0.004293   112.192377
	   31 D(1,13,7,6)     =     82.796399    -0.000000    -0.021707    82.774692
	   32 D(2,1,11,3)     =   -148.086241     0.000000     0.048085  -148.038156
	   33 D(2,1,11,4)     =    -23.686833     0.000000     0.051963   -23.634870
	   34 D(2,1,11,12)    =     95.487475     0.000001     0.052606    95.540081
	   35 D(2,1,13,7)     =     57.093887    -0.000000    -0.027405    57.066482
	   36 D(3,11,1,13)    =     35.502344     0.000001     0.044650    35.546994
	   37 D(4,11,1,13)    =    159.901752     0.000000     0.048528   159.950280
	   38 D(5,6,7,13)     =   -177.431010     0.000001     0.071722  -177.359287
	   39 D(5,6,9,10)     =     65.399463     0.000000    -0.004867    65.394596
	   40 D(7,6,9,10)     =    -57.176166    -0.000000    -0.008876   -57.185042
	   41 D(7,13,1,11)    =   -126.501704    -0.000000    -0.023638  -126.525341
	   42 D(8,6,7,13)     =     64.338783     0.000000     0.062144    64.400927
	   43 D(8,6,9,10)     =   -176.152763    -0.000000     0.000336  -176.152427
	   44 D(9,6,7,13)     =    -53.335698     0.000001     0.072448   -53.263250
	   45 D(12,11,1,13)   =    -80.923939     0.000001     0.049171   -80.874769
	   46 R(1,9)          =      2.710985     0.000939     0.001580     2.712566
	   47 R(2,6)          =      3.485980    -0.001031    -0.001781     3.484199
	   48 R(2,9)          =      2.948544     0.000049     0.000127     2.948671
	   49 R(3,6)          =      4.021022     0.001141     0.002226     4.023248
	   50 R(3,9)          =      3.220192     0.000565     0.001058     3.221251
	   51 R(4,6)          =      4.748365    -0.000601    -0.001368     4.746997
	   52 R(4,9)          =      3.420621    -0.000655    -0.001078     3.419543
	   53 R(9,11)         =      3.127007     0.000273     0.000660     3.127666
	 ---------------------------------------------------------------------------
	Successfully symmetrized geometry.

  ==> Convergence Check <==

  Measures of convergence in internal coordinates in au.
  Criteria marked as inactive (o), active & met (*), and active & unmet ( ).
  ---------------------------------------------------------------------------------------------
   Step     Total Energy     Delta E     MAX Force     RMS Force      MAX Disp      RMS Disp   
  ---------------------------------------------------------------------------------------------
    Convergence Criteria    1.00e-06 *    3.00e-04 *             o    1.20e-03 *             o
  ---------------------------------------------------------------------------------------------
     21   -7990.28491877   -2.57e-06      1.39e-04 *    4.65e-05 o    4.21e-03      1.21e-03 o  ~
  ---------------------------------------------------------------------------------------------

	Writing optimization data to binary file.
	Structure for next step:
	Cartesian Geometry (in Angstrom)
	    C     0.1544152245  -0.1280274763  -1.6057629791
	    O    -0.7369881026   0.0570795787  -2.3703565154
	   BR     1.5399695596   0.4586359361   0.8123742982
	   BR    -1.6350468753   0.6605065604   0.5015476356
	    H     1.3977357740   3.8618110371  -2.7446113593
	    C     1.3992356378   2.8084054263  -2.4503393909
	    H     1.1830404301   2.1902619211  -3.3286552065
	    H     2.3913376231   2.5560531794  -2.0758091229
	    O     0.4876044650   2.5557118314  -1.3947177863
	    H    -0.4083461665   2.7099105332  -1.7076160087
	    C    -0.0339408174  -0.2321846383  -0.0764152737
	   BR    -0.1602522827  -2.1615293086   0.2272812249
	    H     1.2005919532  -0.3081783614  -1.9104604211
			--------------------------
			 OPTKING Finished Execution 
			--------------------------

    Structure for next step:
    Molecular point group: c1
    Full point group: C1

    Geometry (in Angstrom), charge = 0, multiplicity = 1:

    C            0.154715662376    -0.128034811244    -1.605626452436
    O           -0.736687664658     0.057072243757    -2.370219988665
    BR           1.540269997538     0.458628601101     0.812510824910
    BR          -1.634746437357     0.660499225418     0.501684162281
    H            1.398036211916     3.861803702135    -2.744474832570
    C            1.399536075694     2.808398091377    -2.450202864212
    H            1.183340867979     2.190254586139    -3.328518679812
    H            2.391638061042     2.556045844473    -2.075672596227
    O            0.487904902899     2.555704496434    -1.394581259577
    H           -0.408045728601     2.709903198280    -1.707479481990
    C           -0.033640379467    -0.232191973223    -0.076278746965
    BR          -0.159951844763    -2.161536643542     0.227417751565
    H            1.200892391171    -0.308185696356    -1.910323894447

gradient() will perform analytic gradient computation.

*** tstart() called on localhost.localdomain
*** at Tue Mar 19 13:30:55 2019

   => Loading Basis Set <=

    Name: ANONYMOUS5BD342C2
    Role: ORBITAL
    Keyword: BASIS
    atoms 1, 6, 11       entry C          line   119 file /root/psi4conda/share/psi4/basis/6-311ppgss.gbs 
    atoms 2, 9           entry O          line   161 file /root/psi4conda/share/psi4/basis/6-311ppgss.gbs 
    atoms 3-4, 12        entry BR         line  1545 file /root/psi4conda/share/psi4/basis/def2-tzvpp.gbs 
    atoms 5, 7-8, 10, 13 entry H          line    42 file /root/psi4conda/share/psi4/basis/6-311ppgss.gbs 


         ---------------------------------------------------------
                                   SCF
            by Justin Turney, Rob Parrish, Andy Simmonett
                             and Daniel Smith
                              RKS Reference
                       32 Threads,    500 MiB Core
         ---------------------------------------------------------

  ==> Geometry <==

    Molecular point group: c1
    Full point group: C1

    Geometry (in Angstrom), charge = 0, multiplicity = 1:

       Center              X                  Y                   Z               Mass       
    ------------   -----------------  -----------------  -----------------  -----------------
         C            0.154715662376    -0.128034811244    -1.605626452436    12.000000000000
         O           -0.736687664658     0.057072243757    -2.370219988665    15.994914619560
         BR           1.540269997538     0.458628601101     0.812510824910    78.918337087000
         BR          -1.634746437357     0.660499225418     0.501684162281    78.918337087000
         H            1.398036211916     3.861803702135    -2.744474832570     1.007825032070
         C            1.399536075694     2.808398091377    -2.450202864212    12.000000000000
         H            1.183340867979     2.190254586139    -3.328518679812     1.007825032070
         H            2.391638061042     2.556045844473    -2.075672596227     1.007825032070
         O            0.487904902899     2.555704496434    -1.394581259577    15.994914619560
         H           -0.408045728601     2.709903198280    -1.707479481990     1.007825032070
         C           -0.033640379467    -0.232191973223    -0.076278746965    12.000000000000
         BR          -0.159951844763    -2.161536643542     0.227417751565    78.918337087000
         H            1.200892391171    -0.308185696356    -1.910323894447     1.007825032070

  Running in c1 symmetry.

  Rotational constants: A =      0.02414  B =      0.01683  C =      0.01451 [cm^-1]
  Rotational constants: A =    723.61054  B =    504.67493  C =    435.07699 [MHz]
  Nuclear repulsion = 1433.458203760922515

  Charge       = 0
  Multiplicity = 1
  Electrons    = 144
  Nalpha       = 72
  Nbeta        = 72

  ==> Algorithm <==

  SCF Algorithm Type is DF.
  DIIS enabled.
  MOM disabled.
  Fractional occupation disabled.
  Guess Type is READ.
  Energy threshold   = 1.00e-08
  Density threshold  = 1.00e-08
  Integral threshold = 0.00e+00

  ==> Primary Basis <==

  Basis Set: ANONYMOUS5BD342C2
    Blend: 6-311PPGSS + DEF2-TZVPP
    Number of shells: 123
    Number of basis function: 289
    Number of Cartesian functions: 315
    Spherical Harmonics?: true
    Max angular momentum: 3

  ==> DFT Potential <==

   => Composite Functional: M06-2X <= 

    Hybrid M06-2X Meta-GGA XC Functional

    Y. Zhao and D. G. Truhlar,  Theor. Chem. Acc., 120, 215, 2008


    Deriv               =              1
    GGA                 =           TRUE
    Meta                =           TRUE

    Exchange Hybrid     =           TRUE
    MP2 Hybrid          =          FALSE

   => Exchange Functionals <=

    1.0000   XC_HYB_MGGA_X_M06_2X

   => Exact (HF) Exchange <=

    0.5400               HF 

   => Correlation Functionals <=

    1.0000   XC_MGGA_C_M06_2X

   => Molecular Quadrature <=

    Radial Scheme       =       TREUTLER
    Pruning Scheme      =           FLAT
    Nuclear Scheme      =       TREUTLER

    BS radius alpha     =              1
    Pruning alpha       =              1
    Radial Points       =             75
    Spherical Points    =            302
    Total Points        =         294009
    Total Blocks        =           2286
    Max Points          =            256
    Max Functions       =            249

   => Loading Basis Set <=

    Name: (ANONYMOUS5BD342C2 AUX)
    Role: JKFIT
    Keyword: DF_BASIS_SCF
    atoms 1, 6, 11       entry C          line   162 file /root/psi4conda/share/psi4/basis/aug-cc-pvtz-jkfit.gbs 
    atoms 2, 9           entry O          line   286 file /root/psi4conda/share/psi4/basis/aug-cc-pvtz-jkfit.gbs 
    atoms 3-4, 12        entry BR         line  3129 file /root/psi4conda/share/psi4/basis/def2-tzvpp-jkfit.gbs 
    atoms 5, 7-8, 10, 13 entry H          line    70 file /root/psi4conda/share/psi4/basis/aug-cc-pvtz-jkfit.gbs 

  Reading orbitals from file 180, no projection.

  ==> Pre-Iterations <==

   -------------------------------------------------------
    Irrep   Nso     Nmo     Nalpha   Nbeta   Ndocc  Nsocc
   -------------------------------------------------------
     A        289     289       0       0       0       0
   -------------------------------------------------------
    Total     289     289      72      72      72       0
   -------------------------------------------------------

  ==> Integral Setup <==

  ==> DiskDFJK: Density-Fitted J/K Matrices <==

    J tasked:                  Yes
    K tasked:                  Yes
    wK tasked:                  No
    OpenMP threads:             32
    Integrals threads:          32
    Memory (MB):               375
    Algorithm:                Disk
    Integral Cache:           NONE
    Schwarz Cutoff:          1E-12
    Fitting Condition:       1E-12

   => Auxiliary Basis Set <=

  Basis Set: (ANONYMOUS5BD342C2 AUX)
    Blend: AUG-CC-PVTZ-JKFIT + DEF2-TZVPP-JKFIT
    Number of shells: 400
    Number of basis function: 1548
    Number of Cartesian functions: 2043
    Spherical Harmonics?: true
    Max angular momentum: 5

  Minimum eigenvalue in the overlap matrix is 7.4194354716E-05.
  Using Symmetric Orthogonalization.

  SCF Guess: Orbitals guess was supplied from a previous computation.

  ==> Iterations <==

                           Total Energy        Delta E     RMS |[F,P]|

   @DF-RKS iter   0: -7990.28482259691373   -7.99028e+03   1.04858e-04 
   @DF-RKS iter   1: -7990.28492068202922   -9.80851e-05   1.16635e-05 
   @DF-RKS iter   2: -7990.28492100627682   -3.24248e-07   8.72280e-06 DIIS
   @DF-RKS iter   3: -7990.28492107434522   -6.80684e-08   5.09758e-06 DIIS
