
    -----------------------------------------------------------------------
          Psi4: An Open-Source Ab Initio Electronic Structure Package
                               Psi4 1.2.1 release

                         Git: Rev {HEAD} 406f4de 


    R. M. Parrish, L. A. Burns, D. G. A. Smith, A. C. Simmonett,
    A. E. DePrince III, E. G. Hohenstein, U. Bozkaya, A. Yu. Sokolov,
    R. Di Remigio, R. M. Richard, J. F. Gonthier, A. M. James,
    H. R. McAlexander, A. Kumar, M. Saitow, X. Wang, B. P. Pritchard,
    P. Verma, H. F. Schaefer III, K. Patkowski, R. A. King, E. F. Valeev,
    F. A. Evangelista, J. M. Turney, T. D. Crawford, and C. D. Sherrill,
    J. Chem. Theory Comput. 13(7) pp 3185--3197 (2017).
    (doi: 10.1021/acs.jctc.7b00174)


                         Additional Contributions by
    P. Kraus, H. Kruse, M. H. Lechner, M. C. Schieber, and R. A. Shaw

    -----------------------------------------------------------------------


    Psi4 started on: Thursday, 21 March 2019 02:29PM

    Process ID: 662
    Host:       DESKTOP-QL22TIG
    PSIDATADIR: /home/wderricotte/src/psi4conda/share/psi4
    Memory:     500.0 MiB
    Threads:    1
    
  ==> Input File <==

--------------------------------------------------------------------------
molecule{
0 2
 C 0.373812 0.871847 -0.307479
 H 0.058654 0.507392 -1.281982
 H -0.053210 1.817223 0.008737
 C 1.550712 0.463313 0.247140
 H 1.937838 0.940572 1.144717
 C -1.447991 -0.347048 0.523039
 H -1.013980 -1.341161 0.477254
 H -1.575035 0.073342 1.523186
 N 2.238623 -0.706515 -0.107689
 H 2.036287 -1.029095 -1.049008
 H 3.241198 -0.657749 0.037803
 O -2.528854 -0.240759 -0.333964
 H -2.930472 0.632486 -0.211364 
}

set{
   basis 3-21G
   freeze_core True
   reference uhf
   opt_type ts
}


set_num_threads(1)
optimize('b3lyp')
--------------------------------------------------------------------------
  Threads set to 1 by Python driver.
gradient() will perform analytic gradient computation.

*** tstart() called on DESKTOP-QL22TIG
*** at Thu Mar 21 14:29:25 2019

   => Loading Basis Set <=

    Name: 3-21G
    Role: ORBITAL
    Keyword: BASIS
    atoms 1, 4, 6                entry C          line    68 file /home/wderricotte/src/psi4conda/share/psi4/basis/3-21g.gbs 
    atoms 2-3, 5, 7-8, 10-11, 13 entry H          line    21 file /home/wderricotte/src/psi4conda/share/psi4/basis/3-21g.gbs 
    atoms 9                      entry N          line    79 file /home/wderricotte/src/psi4conda/share/psi4/basis/3-21g.gbs 
    atoms 12                     entry O          line    90 file /home/wderricotte/src/psi4conda/share/psi4/basis/3-21g.gbs 


         ---------------------------------------------------------
                                   SCF
            by Justin Turney, Rob Parrish, Andy Simmonett
                             and Daniel Smith
                              UKS Reference
                        1 Threads,    500 MiB Core
         ---------------------------------------------------------

  ==> Geometry <==

    Molecular point group: c1
    Full point group: C1

    Geometry (in Angstrom), charge = 0, multiplicity = 2:

       Center              X                  Y                   Z               Mass       
    ------------   -----------------  -----------------  -----------------  -----------------
         C            0.396336958715     0.884492975546    -0.298798558993    12.000000000000
         H            0.081178958715     0.520037975546    -1.273301558993     1.007825032070
         H           -0.030685041285     1.829868975546     0.017417441007     1.007825032070
         C            1.573236958715     0.475958975546     0.255820441007    12.000000000000
         H            1.960362958715     0.953217975546     1.153397441007     1.007825032070
         C           -1.425466041285    -0.334402024454     0.531719441007    12.000000000000
         H           -0.991455041285    -1.328515024454     0.485934441007     1.007825032070
         H           -1.552510041285     0.085987975546     1.531866441007     1.007825032070
         N            2.261147958715    -0.693869024454    -0.099008558993    14.003074004780
         H            2.058811958715    -1.016449024454    -1.040327558993     1.007825032070
         H            3.263722958715    -0.645103024454     0.046483441007     1.007825032070
         O           -2.506329041285    -0.228113024454    -0.325283558993    15.994914619560
         H           -2.907947041285     0.645131975546    -0.202683558993     1.007825032070

  Running in c1 symmetry.

  Rotational constants: A =      0.39217  B =      0.06183  C =      0.05850 [cm^-1]
  Rotational constants: A =  11756.99885  B =   1853.56674  C =   1753.65127 [MHz]
  Nuclear repulsion =  167.336983981895543

  Charge       = 0
  Multiplicity = 2
  Electrons    = 41
  Nalpha       = 21
  Nbeta        = 20

  ==> Algorithm <==

  SCF Algorithm Type is DF.
  DIIS enabled.
  MOM disabled.
  Fractional occupation disabled.
  Guess Type is GWH.
  Energy threshold   = 1.00e-08
  Density threshold  = 1.00e-08
  Integral threshold = 0.00e+00

  ==> Primary Basis <==

  Basis Set: 3-21G
    Blend: 3-21G
    Number of shells: 41
    Number of basis function: 61
    Number of Cartesian functions: 61
    Spherical Harmonics?: false
    Max angular momentum: 1

  ==> DFT Potential <==

   => Composite Functional: B3LYP <= 

    B3LYP Hyb-GGA Exchange-Correlation Functional

    P. J. Stephens, F. J. Devlin, C. F. Chabalowski, and M. J. Frisch, J. Phys. Chem. 98, 11623 (1994)

    Deriv               =              1
    GGA                 =           TRUE
    Meta                =          FALSE

    Exchange Hybrid     =           TRUE
    MP2 Hybrid          =          FALSE

   => Exchange Functionals <=

    0.0800   Slater exchange
    0.7200         Becke 88

   => Exact (HF) Exchange <=

    0.2000               HF 

   => Correlation Functionals <=

    0.1900   Vosko, Wilk & Nusair (VWN5_RPA)
    0.8100   Lee, Yang & Parr

   => Molecular Quadrature <=

    Radial Scheme       =       TREUTLER
    Pruning Scheme      =           FLAT
    Nuclear Scheme      =       TREUTLER

    BS radius alpha     =              1
    Pruning alpha       =              1
    Radial Points       =             75
    Spherical Points    =            302
    Total Points        =         285416
    Total Blocks        =           2207
    Max Points          =            256
    Max Functions       =             57

   => Loading Basis Set <=

    Name: (3-21G AUX)
    Role: JKFIT
    Keyword: DF_BASIS_SCF
    atoms 1, 4, 6                entry C          line   203 file /home/wderricotte/src/psi4conda/share/psi4/basis/def2-svp-jkfit.gbs 
    atoms 2-3, 5, 7-8, 10-11, 13 entry H          line    23 file /home/wderricotte/src/psi4conda/share/psi4/basis/def2-svp-jkfit.gbs 
    atoms 9                      entry N          line   263 file /home/wderricotte/src/psi4conda/share/psi4/basis/def2-svp-jkfit.gbs 
    atoms 12                     entry O          line   323 file /home/wderricotte/src/psi4conda/share/psi4/basis/def2-svp-jkfit.gbs 

  ==> Pre-Iterations <==

   -------------------------------------------------------
    Irrep   Nso     Nmo     Nalpha   Nbeta   Ndocc  Nsocc
   -------------------------------------------------------
     A         61      61       0       0       0       0
   -------------------------------------------------------
    Total      61      61      21      20      20       1
   -------------------------------------------------------

  ==> Integral Setup <==

  ==> DiskDFJK: Density-Fitted J/K Matrices <==

    J tasked:                  Yes
    K tasked:                  Yes
    wK tasked:                  No
    OpenMP threads:              1
    Integrals threads:           1
    Memory (MB):               375
    Algorithm:                Core
    Integral Cache:           NONE
    Schwarz Cutoff:          1E-12
    Fitting Condition:       1E-12

   => Auxiliary Basis Set <=

  Basis Set: (3-21G AUX)
    Blend: DEF2-SVP-JKFIT
    Number of shells: 173
    Number of basis function: 613
    Number of Cartesian functions: 613
    Spherical Harmonics?: false
    Max angular momentum: 4

  Minimum eigenvalue in the overlap matrix is 1.2884656525E-02.
  Using Symmetric Orthogonalization.

  SCF Guess: Generalized Wolfsberg-Helmholtz.

  ==> Iterations <==

                           Total Energy        Delta E     RMS |[F,P]|

   @DF-UKS iter   1:  -245.25051533598855   -2.45251e+02   4.77074e-02 
   @DF-UKS iter   2:  -243.57881356253711    1.67170e+00   4.27396e-02 DIIS
   @DF-UKS iter   3:  -246.08041294837381   -2.50160e+00   2.60560e-02 DIIS
   @DF-UKS iter   4:  -247.36105868008713   -1.28065e+00   1.12471e-02 DIIS
   @DF-UKS iter   5:  -247.50499851296354   -1.43940e-01   6.88141e-03 DIIS
   @DF-UKS iter   6:  -247.60425496629648   -9.92565e-02   2.12441e-03 DIIS
   @DF-UKS iter   7:  -247.61311796250925   -8.86300e-03   6.58919e-04 DIIS
   @DF-UKS iter   8:  -247.61423124716100   -1.11328e-03   3.30525e-04 DIIS
   @DF-UKS iter   9:  -247.61456207645404   -3.30829e-04   7.52418e-05 DIIS
   @DF-UKS iter  10:  -247.61460202376827   -3.99473e-05   4.73294e-05 DIIS
   @DF-UKS iter  11:  -247.61460847231501   -6.44855e-06   2.09773e-05 DIIS
   @DF-UKS iter  12:  -247.61461010317180   -1.63086e-06   3.66658e-06 DIIS
   @DF-UKS iter  13:  -247.61461025331676   -1.50145e-07   1.50159e-06 DIIS
   @DF-UKS iter  14:  -247.61461028889994   -3.55832e-08   4.95035e-07 DIIS
   @DF-UKS iter  15:  -247.61461029110103   -2.20109e-09   1.19459e-07 DIIS
   @DF-UKS iter  16:  -247.61461029126099   -1.59957e-10   2.78938e-08 DIIS
   @DF-UKS iter  17:  -247.61461029126440   -3.41061e-12   7.31334e-09 DIIS

  ==> Post-Iterations <==

   @Spin Contamination Metric:   2.446531696E-02
   @S^2 Expected:                7.500000000E-01
   @S^2 Observed:                7.744653170E-01
   @S   Expected:                5.000000000E-01
   @S   Observed:                5.000000000E-01

    Orbital Energies [Eh]
    ---------------------

    Alpha Occupied:                                                       

       1A    -19.039284     2A    -14.244265     3A    -10.144356  
       4A    -10.134445     5A    -10.093275     6A     -1.033083  
       7A     -0.899570     8A     -0.719754     9A     -0.646784  
      10A     -0.572469    11A     -0.510093    12A     -0.496342  
      13A     -0.454443    14A     -0.418620    15A     -0.397839  
      16A     -0.367637    17A     -0.355276    18A     -0.323967  
      19A     -0.306256    20A     -0.209357    21A     -0.115663  

    Alpha Virtual:                                                        

      22A      0.076404    23A      0.101140    24A      0.113158  
      25A      0.145171    26A      0.166738    27A      0.193508  
      28A      0.205928    29A      0.214110    30A      0.228237  
      31A      0.274951    32A      0.359078    33A      0.403801  
      34A      0.667284    35A      0.706161    36A      0.733016  
      37A      0.762522    38A      0.802253    39A      0.820279  
      40A      0.849443    41A      0.883745    42A      0.920545  
      43A      0.964280    44A      0.983255    45A      1.019371  
      46A      1.053745    47A      1.079570    48A      1.098364  
      49A      1.118649    50A      1.155311    51A      1.278294  
      52A      1.359835    53A      1.376756    54A      1.455999  
      55A      1.509346    56A      1.597577    57A      1.659520  
      58A      1.772070    59A      2.020186    60A      2.512383  
      61A      2.980398  

    Beta Occupied:                                                        

       1A    -19.035291     2A    -14.242268     3A    -10.133288  
       4A    -10.129538     5A    -10.095663     6A     -1.023031  
       7A     -0.893877     8A     -0.716363     9A     -0.627435  
      10A     -0.568617    11A     -0.507809    12A     -0.487879  
      13A     -0.451643    14A     -0.410911    15A     -0.394865  
      16A     -0.357250    17A     -0.334387    18A     -0.307434  
      19A     -0.293054    20A     -0.192747  

    Beta Virtual:                                                         

      21A     -0.004284    22A      0.098319    23A      0.104355  
      24A      0.118813    25A      0.146706    26A      0.171313  
      27A      0.198081    28A      0.207010    29A      0.222314  
      30A      0.233215    31A      0.288754    32A      0.365372  
      33A      0.405633    34A      0.673883    35A      0.710044  
      36A      0.744402    37A      0.782822    38A      0.817067  
      39A      0.824364    40A      0.860192    41A      0.889426  
      42A      0.927641    43A      0.966864    44A      0.986260  
      45A      1.020481    46A      1.056700    47A      1.082265  
      48A      1.100586    49A      1.123243    50A      1.163567  
      51A      1.280535    52A      1.361148    53A      1.385513  
      54A      1.463996    55A      1.524337    56A      1.608601  
      57A      1.667482    58A      1.775637    59A      2.024632  
      60A      2.517133    61A      2.989232  

    Final Occupation by Irrep:
              A 
    DOCC [    20 ]
    SOCC [     1 ]

  Energy converged.

  @DF-UKS Final Energy:  -247.61461029126440

   => Energetics <=

    Nuclear Repulsion Energy =            167.3369839818955427
    One-Electron Energy =                -667.0810513520557379
    Two-Electron Energy =                 280.1499996109648691
    DFT Exchange-Correlation Energy =     -28.0205425320690971
    Empirical Dispersion Energy =           0.0000000000000000
    VV10 Nonlocal Energy =                  0.0000000000000000
    Total Energy =                       -247.6146102912644551


  UHF NO Occupations:
  HONO-2 :   19  A 1.9997089
  HONO-1 :   20  A 1.9886360
  HONO-0 :   21  A 1.0000000
  LUNO+0 :   22  A 0.0113640
  LUNO+1 :   23  A 0.0002911
  LUNO+2 :   24  A 0.0001697
  LUNO+3 :   25  A 0.0001382



Properties will be evaluated at   0.000000,   0.000000,   0.000000 [a0]

Properties computed using the SCF density matrix

  Nuclear Dipole Moment: [e a0]
     X:     1.7452      Y:     0.9798      Z:     0.6726

  Electronic Dipole Moment: [e a0]
     X:    -1.2584      Y:    -0.4671      Z:    -0.6641

  Dipole Moment: [e a0]
     X:     0.4869      Y:     0.5128      Z:     0.0085     Total:     0.7071

  Dipole Moment: [D]
     X:     1.2375      Y:     1.3033      Z:     0.0215     Total:     1.7973


*** tstop() called on DESKTOP-QL22TIG at Thu Mar 21 14:29:41 2019
Module time:
	user time   =      14.86 seconds =       0.25 minutes
	system time =       0.66 seconds =       0.01 minutes
	total time  =         16 seconds =       0.27 minutes
Total time:
	user time   =      14.86 seconds =       0.25 minutes
	system time =       0.66 seconds =       0.01 minutes
	total time  =         16 seconds =       0.27 minutes

*** tstart() called on DESKTOP-QL22TIG
*** at Thu Mar 21 14:29:41 2019


         ------------------------------------------------------------
                                   SCF GRAD                          
                          Rob Parrish, Justin Turney,                
                       Andy Simmonett, and Alex Sokolov              
         ------------------------------------------------------------

  ==> Geometry <==

    Molecular point group: c1
    Full point group: C1

    Geometry (in Angstrom), charge = 0, multiplicity = 2:

       Center              X                  Y                   Z               Mass       
    ------------   -----------------  -----------------  -----------------  -----------------
         C            0.396336958715     0.884492975546    -0.298798558993    12.000000000000
         H            0.081178958715     0.520037975546    -1.273301558993     1.007825032070
         H           -0.030685041285     1.829868975546     0.017417441007     1.007825032070
         C            1.573236958715     0.475958975546     0.255820441007    12.000000000000
         H            1.960362958715     0.953217975546     1.153397441007     1.007825032070
         C           -1.425466041285    -0.334402024454     0.531719441007    12.000000000000
         H           -0.991455041285    -1.328515024454     0.485934441007     1.007825032070
         H           -1.552510041285     0.085987975546     1.531866441007     1.007825032070
         N            2.261147958715    -0.693869024454    -0.099008558993    14.003074004780
         H            2.058811958715    -1.016449024454    -1.040327558993     1.007825032070
         H            3.263722958715    -0.645103024454     0.046483441007     1.007825032070
         O           -2.506329041285    -0.228113024454    -0.325283558993    15.994914619560
         H           -2.907947041285     0.645131975546    -0.202683558993     1.007825032070

  Nuclear repulsion =  167.336983981895543

  ==> Basis Set <==

  Basis Set: 3-21G
    Blend: 3-21G
    Number of shells: 41
    Number of basis function: 61
    Number of Cartesian functions: 61
    Spherical Harmonics?: false
    Max angular momentum: 1

  ==> DFJKGrad: Density-Fitted SCF Gradients <==

    Gradient:                    1
    J tasked:                  Yes
    K tasked:                  Yes
    wK tasked:                  No
    OpenMP threads:              1
    Integrals threads:           1
    Memory (MB):               375
    Schwarz Cutoff:          0E+00
    Fitting Condition:       1E-12

   => Auxiliary Basis Set <=

  Basis Set: (3-21G AUX)
    Blend: DEF2-SVP-JKFIT
    Number of shells: 173
    Number of basis function: 613
    Number of Cartesian functions: 613
    Spherical Harmonics?: false
    Max angular momentum: 4

  ==> DFT Potential <==

   => Composite Functional: B3LYP <= 

    B3LYP Hyb-GGA Exchange-Correlation Functional

    P. J. Stephens, F. J. Devlin, C. F. Chabalowski, and M. J. Frisch, J. Phys. Chem. 98, 11623 (1994)

    Deriv               =              1
    GGA                 =           TRUE
    Meta                =          FALSE

    Exchange Hybrid     =           TRUE
    MP2 Hybrid          =          FALSE

   => Exchange Functionals <=

    0.0800   Slater exchange
    0.7200         Becke 88

   => Exact (HF) Exchange <=

    0.2000               HF 

   => Correlation Functionals <=

    0.1900   Vosko, Wilk & Nusair (VWN5_RPA)
    0.8100   Lee, Yang & Parr

   => Molecular Quadrature <=

    Radial Scheme       =       TREUTLER
    Pruning Scheme      =           FLAT
    Nuclear Scheme      =       TREUTLER

    BS radius alpha     =              1
    Pruning alpha       =              1
    Radial Points       =             75
    Spherical Points    =            302
    Total Points        =         285416
    Total Blocks        =           2207
    Max Points          =            256
    Max Functions       =             57


  -Total Gradient:
     Atom            X                  Y                   Z
    ------   -----------------  -----------------  -----------------
       1        0.001404565775    -0.001662130669    -0.000209691769
       2        0.000581781987     0.000303598760    -0.001270522528
       3        0.000203426632     0.000923514827     0.000301473760
       4        0.005663526134    -0.002653507401    -0.006415429973
       5        0.001091196817    -0.000269642023     0.001223812428
       6       -0.016883897785     0.004425885217    -0.014039199730
       7       -0.001695856043    -0.001900170239    -0.000303827809
       8       -0.003429590177     0.000123676317    -0.001019868567
       9       -0.004105620191    -0.003383128478     0.005611256849
      10        0.004098791433     0.005873077660     0.004072697356
      11       -0.006009792950     0.002541462788    -0.004729237648
      12        0.007821802786     0.014764272722     0.016589197375
      13        0.011278458453    -0.019102427598     0.000187820613


*** tstop() called on DESKTOP-QL22TIG at Thu Mar 21 14:29:44 2019
Module time:
	user time   =       2.08 seconds =       0.03 minutes
	system time =       0.22 seconds =       0.00 minutes
	total time  =          3 seconds =       0.05 minutes
Total time:
	user time   =      16.94 seconds =       0.28 minutes
	system time =       0.88 seconds =       0.01 minutes
	total time  =         19 seconds =       0.32 minutes

			-----------------------------------------
			 OPTKING 2.0: for geometry optimizations 
			  - R.A. King,  Bethel University        
			-----------------------------------------

	Internal coordinates to be generated automatically.
	Detected frag 1 with atoms:  1 2 3 4 5 9 10 11
	Detected frag 2 with atoms:  6 7 8 12 13
	Unifying fragments since fragment_mode == SINGLE
	Connecting fragments 1 and 2
	---Fragment 1 Bond Connectivity---
	 1 : 2 3 4 6
	 2 : 1
	 3 : 1
	 4 : 1 5 9
	 5 : 4
	 6 : 1 7 8 12
	 7 : 6
	 8 : 6
	 9 : 4 10 11
	 10 : 9
	 11 : 9
	 12 : 6 13
	 13 : 12

	---Fragment 1 Geometry and Gradient---
	 C           0.7489683083        1.6714494902       -0.5646474454
	 H           0.1534059997        0.9827293525       -2.4061912311
	 H          -0.0579863244        3.4579512228        0.0329141934
	 C           2.9729869941        0.8994321143        0.4834305727
	 H           3.7045491130        1.8013209187        2.1796052859
	 C          -2.6937404298       -0.6319282445        1.0048041230
	 H          -1.8735785011       -2.5105295596        0.9182830120
	 H          -2.9338187966        0.1624937245        2.8948080457
	 N           4.2729503879       -1.3112224283       -0.1870990613
	 H           3.8905907611       -1.9208102843       -1.9659341750
	 H           6.1675425656       -1.2190680437        0.0878409732
	 O          -4.7362754869       -0.4310711436       -0.6146968420
	 H          -5.4952235170        1.2191227533       -0.3830164181
	             0.0014045658       -0.0016621307       -0.0002096918
	             0.0005817820        0.0003035988       -0.0012705225
	             0.0002034266        0.0009235148        0.0003014738
	             0.0056635261       -0.0026535074       -0.0064154300
	             0.0010911968       -0.0002696420        0.0012238124
	            -0.0168838978        0.0044258852       -0.0140391997
	            -0.0016958560       -0.0019001702       -0.0003038278
	            -0.0034295902        0.0001236763       -0.0010198686
	            -0.0041056202       -0.0033831285        0.0056112568
	             0.0040987914        0.0058730777        0.0040726974
	            -0.0060097930        0.0025414628       -0.0047292376
	             0.0078218028        0.0147642727        0.0165891974
	             0.0112784585       -0.0191024276        0.0001878206

	Previous optimization step data not found.  Starting new optimization.

	---Fragment 1 Intrafragment Coordinates---
	 - Coordinate -           - BOHR/RAD -       - ANG/DEG -
	 R(1,2)           =         2.054340	       1.087110
	 R(1,3)           =         2.049352	       1.084470
	 R(1,4)           =         2.576963	       1.363670
	 R(1,6)           =         4.429556	       2.344020
	 R(4,5)           =         2.055625	       1.087790
	 R(4,9)           =         2.650756	       1.402720
	 R(6,7)           =         2.051656	       1.085690
	 R(6,8)           =         2.064185	       1.092320
	 R(6,12)          =         2.614398	       1.383480
	 R(9,10)          =         1.918867	       1.015421
	 R(9,11)          =         1.916654	       1.014250
	 R(12,13)         =         1.831070	       0.968961
	 B(1,4,5)         =         2.107485	     120.749999
	 B(1,4,9)         =         2.177556	     124.764786
	 B(1,6,7)         =         1.721873	      98.656069
	 B(1,6,8)         =         1.787163	     102.396918
	 B(1,6,12)        =         1.925995	     110.351411
	 B(2,1,3)         =         2.025817	     116.070767
	 B(2,1,4)         =         2.111040	     120.953664
	 B(2,1,6)         =         1.488668	      85.294370
	 B(3,1,4)         =         2.074188	     118.842226
	 B(3,1,6)         =         1.614768	      92.519395
	 B(4,1,6)         =         1.950750	     111.769744
	 B(4,9,10)        =         1.984184	     113.685357
	 B(4,9,11)        =         1.991478	     114.103293
	 B(5,4,9)         =         1.982416	     113.584047
	 B(6,12,13)       =         1.890917	     108.341565
	 B(7,6,8)         =         2.023618	     115.944764
	 B(7,6,12)        =         1.935357	     110.887778
	 B(8,6,12)        =         2.033925	     116.535337
	 B(10,9,11)       =         1.923273	     110.195441
	 D(1,4,9,10)      =         0.432941	      24.805679
	 D(1,4,9,11)      =         2.658840	     152.340287
	 D(1,6,12,13)     =        -1.331306	     -76.278211
	 D(2,1,4,5)       =         2.976132	     170.519796
	 D(2,1,4,9)       =        -0.367529	     -21.057836
	 D(2,1,6,7)       =         1.349213	      77.304231
	 D(2,1,6,8)       =        -2.855013	    -163.580193
	 D(2,1,6,12)      =        -0.678438	     -38.871612
	 D(3,1,4,5)       =         0.248998	      14.266551
	 D(3,1,4,9)       =        -3.094662	    -177.311080
	 D(3,1,6,7)       =        -2.910056	    -166.733949
	 D(3,1,6,8)       =        -0.831097	     -47.618373
	 D(3,1,6,12)      =         1.345478	      77.090208
	 D(4,1,6,7)       =        -0.771767	     -44.218997
	 D(4,1,6,8)       =         1.307192	      74.896579
	 D(4,1,6,12)      =        -2.799418	    -160.394840
	 D(5,4,1,6)       =        -1.599316	     -91.634053
	 D(5,4,9,10)      =        -2.897979	    -166.041985
	 D(5,4,9,11)      =        -0.672081	     -38.507377
	 D(6,1,4,9)       =         1.340209	      76.788316
	 D(7,6,12,13)     =         3.062344	     175.459405
	 D(8,6,12,13)     =         0.696384	      39.899844

	Current energy   :      -247.6146102913

	Generating empirical Hessian (Schlegel '84) for each fragment.
	Taking PRFO optimization step.
	Maximizing along 1 lowest eigenvalue of Hessian.

 RFO min eigenvalues
 -0.005102 -0.000000 -0.000000 -0.000000 -0.000000 -0.000000 -0.000000 -0.000000
 -0.000000 -0.000000  0.000000  0.000000  0.000000  0.000000  0.000000  0.000000
  0.000000  0.000000  0.000000  0.000000  0.002305  0.007154  0.011205  0.019192
  0.022980  0.044678  0.046793  0.050748  0.053833  0.057165  0.067862  0.091726
  0.100950  0.119840  0.134341  0.158252  0.160000  0.160000  0.160333  0.219859
  0.220446  0.224204  0.345460  0.350697  0.351490  0.353158  0.354597  0.450840
  0.451871  0.452790  0.486057  0.522126  0.536815

 RFO max eigenvalues
 -0.000000  0.000000
	|RFO target step|  :        0.2277053658
	RFO gradient       :       -0.0224047676
	RFO hessian        :        0.0934016495
	Projected Delta(E) :       -0.0025481401

	Back-transformation to cartesian coordinates...
	Could not converge backtransformation.
	Using first guess instead.

	--- Internal Coordinate Step in ANG or DEG, aJ/ANG or AJ/DEG ---
	 ---------------------------------------------------------------------------
	   Coordinate                Previous        Force       Change         New 
	   ----------                --------       ------       ------       ------
	    1 R(1,2)          =      1.087110    -0.007161    -0.001217     1.085893
	    2 R(1,3)          =      1.084470    -0.006707    -0.001014     1.083456
	    3 R(1,4)          =      1.363670     0.000810     0.000172     1.363842
	    4 R(1,6)          =      2.344020    -0.030014    -0.037139     2.306881
	    5 R(4,5)          =      1.087790    -0.010544    -0.001901     1.085889
	    6 R(4,9)          =      1.402720     0.069251     0.010002     1.412722
	    7 R(6,7)          =      1.085690    -0.008839    -0.000843     1.084847
	    8 R(6,8)          =      1.092320     0.004006     0.000981     1.093300
	    9 R(6,12)         =      1.383480     0.211288     0.027792     1.411272
	   10 R(9,10)         =      1.015421     0.053214     0.011047     1.026468
	   11 R(9,11)         =      1.014250     0.053535     0.009786     1.024036
	   12 R(12,13)        =      0.968961     0.180143     0.022729     0.991690
	   13 B(1,4,5)        =    120.749999    -0.000103    -0.392639   120.357361
	   14 B(1,4,9)        =    124.764786     0.000053     0.207795   124.972580
	   15 B(1,6,7)        =     98.656069    -0.000121    -1.158392    97.497676
	   16 B(1,6,8)        =    102.396918    -0.000150    -0.962544   101.434375
	   17 B(1,6,12)       =    110.351411    -0.000131    -0.509782   109.841628
	   18 B(2,1,3)        =    116.070767    -0.000016    -0.004776   116.065991
	   19 B(2,1,4)        =    120.953664     0.000015     0.045250   120.998914
	   20 B(2,1,6)        =     85.294370    -0.000021    -0.490610    84.803760
	   21 B(3,1,4)        =    118.842226     0.000043     0.373521   119.215747
	   22 B(3,1,6)        =     92.519395     0.000024    -0.052036    92.467358
	   23 B(4,1,6)        =    111.769744    -0.000108    -0.532637   111.237107
	   24 B(4,9,10)       =    113.685357     0.000263     2.591306   116.276663
	   25 B(4,9,11)       =    114.103293     0.000247     2.557786   116.661080
	   26 B(5,4,9)        =    113.584047     0.000054     0.315267   113.899314
	   27 B(6,12,13)      =    108.341565     0.000516     2.296907   110.638472
	   28 B(7,6,8)        =    115.944764    -0.000035    -0.381810   115.562953
	   29 B(7,6,12)       =    110.887778     0.000091     0.492443   111.380221
	   30 B(8,6,12)       =    116.535337     0.000240     1.733288   118.268625
	   31 B(10,9,11)      =    110.195441     0.000082     2.390168   112.585609
	   32 D(1,4,9,10)     =     24.805679    -0.000071    -5.483936    19.321743
	   33 D(1,4,9,11)     =    152.340287     0.000061     3.631939   155.972226
	   34 D(1,6,12,13)    =    -76.278211     0.000003     1.175162   -75.103049
	   35 D(2,1,4,5)      =    170.519796     0.000012     0.350504   170.870300
	   36 D(2,1,4,9)      =    -21.057836     0.000020     1.242302   -19.815533
	   37 D(2,1,6,7)      =     77.304231     0.000011     0.741530    78.045761
	   38 D(2,1,6,8)      =   -163.580193    -0.000017    -0.297135  -163.877328
	   39 D(2,1,6,12)     =    -38.871612     0.000012     0.915759   -37.955852
	   40 D(3,1,4,5)      =     14.266551    -0.000013    -0.816823    13.449728
	   41 D(3,1,4,9)      =   -177.311080    -0.000005     0.074976  -177.236104
	   42 D(3,1,6,7)      =   -166.733949     0.000007     0.737576  -165.996372
	   43 D(3,1,6,8)      =    -47.618373    -0.000021    -0.301089   -47.919462
	   44 D(3,1,6,12)     =     77.090208     0.000008     0.911806    78.002014
	   45 D(4,1,6,7)      =    -44.218997     0.000013     0.967098   -43.251899
	   46 D(4,1,6,8)      =     74.896579    -0.000015    -0.071567    74.825012
	   47 D(4,1,6,12)     =   -160.394840     0.000014     1.141328  -159.253512
	   48 D(5,4,1,6)      =    -91.634053    -0.000009    -0.595427   -92.229480
	   49 D(5,4,9,10)     =   -166.041985    -0.000067    -4.715243  -170.757228
	   50 D(5,4,9,11)     =    -38.507377     0.000065     4.400632   -34.106746
	   51 D(6,1,4,9)      =     76.788316    -0.000001     0.296372    77.084687
	   52 D(7,6,12,13)    =    175.459405     0.000041     2.565070   178.024475
	   53 D(8,6,12,13)    =     39.899844    -0.000028     0.676537    40.576381
	 ---------------------------------------------------------------------------
	Successfully symmetrized geometry.

  ==> Convergence Check <==

  Measures of convergence in internal coordinates in au.
  Criteria marked as inactive (o), active & met (*), and active & unmet ( ).
  --------------------------------------------------------------------------------------------- ~
   Step     Total Energy     Delta E     MAX Force     RMS Force      MAX Disp      RMS Disp    ~
  --------------------------------------------------------------------------------------------- ~
    Convergence Criteria    1.00e-06 *    3.00e-04 *             o    1.20e-03 *             o  ~
  --------------------------------------------------------------------------------------------- ~
      1    -247.61461029   -2.48e+02      2.56e-02      5.28e-03 o    9.57e-02      3.10e-02 o  ~
  ---------------------------------------------------------------------------------------------

	Writing optimization data to binary file.
	Structure for next step:
	Cartesian Geometry (in Angstrom)
	    C     0.3762878786   0.9000986733  -0.2836044157
	    H     0.0495222330   0.5381326564  -1.2538454779
	    H    -0.0596739053   1.8351841985   0.0471967099
	    C     1.5581627144   0.4881398908   0.2581777904
	    H     1.9466043659   0.9635942004   1.1538399757
	    C    -1.3935195287  -0.3306790913   0.5377778392
	    H    -0.9248127842  -1.3074378068   0.4816574405
	    H    -1.4984695371   0.0851449156   1.5434521934
	    N     2.2604150180  -0.6773694828  -0.1215769769
	    H     2.0217534624  -1.0733803983  -1.0380117270
	    H     3.2681020101  -0.6864789525   0.0604500130
	    O    -2.4923881556  -0.2359742279  -0.3426801572
	    H    -2.9315773083   0.6492711066  -0.2595974741
			--------------------------
			 OPTKING Finished Execution 
			--------------------------

    Structure for next step:
    Molecular point group: c1
    Full point group: C1

    Geometry (in Angstrom), charge = 0, multiplicity = 2:

    C            0.374066879763     0.894117657675    -0.279628177573
    H            0.047301234104     0.532151640784    -1.249869239829
    H           -0.061894904130     1.829203182925     0.051172947987
    C            1.555941715549     0.482158875251     0.262154028486
    H            1.944383367029     0.957613184863     1.157816213801
    C           -1.395740527529    -0.336660106877     0.541754077256
    H           -0.927033783118    -1.313418822368     0.485633678550
    H           -1.500690535989     0.079163899980     1.547428431464
    N            2.258194019078    -0.683350498333    -0.117600738849
    H            2.019532463572    -1.079361413859    -1.034035488919
    H            3.265881011218    -0.692459968049     0.064426251045
    O           -2.494609154471    -0.241955243514    -0.338703919111
    H           -2.933798307163     0.643290091042    -0.255621236040

gradient() will perform analytic gradient computation.

*** tstart() called on DESKTOP-QL22TIG
*** at Thu Mar 21 14:29:45 2019

   => Loading Basis Set <=

    Name: 3-21G
    Role: ORBITAL
    Keyword: BASIS
    atoms 1, 4, 6                entry C          line    68 file /home/wderricotte/src/psi4conda/share/psi4/basis/3-21g.gbs 
    atoms 2-3, 5, 7-8, 10-11, 13 entry H          line    21 file /home/wderricotte/src/psi4conda/share/psi4/basis/3-21g.gbs 
    atoms 9                      entry N          line    79 file /home/wderricotte/src/psi4conda/share/psi4/basis/3-21g.gbs 
    atoms 12                     entry O          line    90 file /home/wderricotte/src/psi4conda/share/psi4/basis/3-21g.gbs 


         ---------------------------------------------------------
                                   SCF
            by Justin Turney, Rob Parrish, Andy Simmonett
                             and Daniel Smith
                              UKS Reference
                        1 Threads,    500 MiB Core
         ---------------------------------------------------------

  ==> Geometry <==

    Molecular point group: c1
    Full point group: C1

    Geometry (in Angstrom), charge = 0, multiplicity = 2:

       Center              X                  Y                   Z               Mass       
    ------------   -----------------  -----------------  -----------------  -----------------
         C            0.374066879763     0.894117657675    -0.279628177573    12.000000000000
         H            0.047301234104     0.532151640784    -1.249869239829     1.007825032070
         H           -0.061894904130     1.829203182925     0.051172947987     1.007825032070
         C            1.555941715549     0.482158875251     0.262154028486    12.000000000000
         H            1.944383367029     0.957613184863     1.157816213801     1.007825032070
         C           -1.395740527529    -0.336660106877     0.541754077256    12.000000000000
         H           -0.927033783118    -1.313418822368     0.485633678550     1.007825032070
         H           -1.500690535989     0.079163899980     1.547428431464     1.007825032070
         N            2.258194019078    -0.683350498333    -0.117600738849    14.003074004780
         H            2.019532463572    -1.079361413859    -1.034035488919     1.007825032070
         H            3.265881011218    -0.692459968049     0.064426251045     1.007825032070
         O           -2.494609154471    -0.241955243514    -0.338703919111    15.994914619560
         H           -2.933798307163     0.643290091042    -0.255621236040     1.007825032070

  Running in c1 symmetry.

  Rotational constants: A =      0.38677  B =      0.06252  C =      0.05911 [cm^-1]
  Rotational constants: A =  11595.15435  B =   1874.42385  C =   1772.04594 [MHz]
  Nuclear repulsion =  166.989338621909326

  Charge       = 0
  Multiplicity = 2
  Electrons    = 41
  Nalpha       = 21
  Nbeta        = 20

  ==> Algorithm <==

  SCF Algorithm Type is DF.
  DIIS enabled.
  MOM disabled.
  Fractional occupation disabled.
  Guess Type is READ.
  Energy threshold   = 1.00e-08
  Density threshold  = 1.00e-08
  Integral threshold = 0.00e+00

  ==> Primary Basis <==

  Basis Set: 3-21G
    Blend: 3-21G
    Number of shells: 41
    Number of basis function: 61
    Number of Cartesian functions: 61
    Spherical Harmonics?: false
    Max angular momentum: 1

  ==> DFT Potential <==

   => Composite Functional: B3LYP <= 

    B3LYP Hyb-GGA Exchange-Correlation Functional

    P. J. Stephens, F. J. Devlin, C. F. Chabalowski, and M. J. Frisch, J. Phys. Chem. 98, 11623 (1994)

    Deriv               =              1
    GGA                 =           TRUE
    Meta                =          FALSE

    Exchange Hybrid     =           TRUE
    MP2 Hybrid          =          FALSE

   => Exchange Functionals <=

    0.0800   Slater exchange
    0.7200         Becke 88

   => Exact (HF) Exchange <=

    0.2000               HF 

   => Correlation Functionals <=

    0.1900   Vosko, Wilk & Nusair (VWN5_RPA)
    0.8100   Lee, Yang & Parr

   => Molecular Quadrature <=

    Radial Scheme       =       TREUTLER
    Pruning Scheme      =           FLAT
    Nuclear Scheme      =       TREUTLER

    BS radius alpha     =              1
    Pruning alpha       =              1
    Radial Points       =             75
    Spherical Points    =            302
    Total Points        =         285441
    Total Blocks        =           2211
    Max Points          =            256
    Max Functions       =             57

   => Loading Basis Set <=

    Name: (3-21G AUX)
    Role: JKFIT
    Keyword: DF_BASIS_SCF
    atoms 1, 4, 6                entry C          line   203 file /home/wderricotte/src/psi4conda/share/psi4/basis/def2-svp-jkfit.gbs 
    atoms 2-3, 5, 7-8, 10-11, 13 entry H          line    23 file /home/wderricotte/src/psi4conda/share/psi4/basis/def2-svp-jkfit.gbs 
    atoms 9                      entry N          line   263 file /home/wderricotte/src/psi4conda/share/psi4/basis/def2-svp-jkfit.gbs 
    atoms 12                     entry O          line   323 file /home/wderricotte/src/psi4conda/share/psi4/basis/def2-svp-jkfit.gbs 

  Reading orbitals from file 180, no projection.

  ==> Pre-Iterations <==

   -------------------------------------------------------
    Irrep   Nso     Nmo     Nalpha   Nbeta   Ndocc  Nsocc
   -------------------------------------------------------
     A         61      61       0       0       0       0
   -------------------------------------------------------
    Total      61      61      21      20      20       1
   -------------------------------------------------------

  ==> Integral Setup <==

  ==> DiskDFJK: Density-Fitted J/K Matrices <==

    J tasked:                  Yes
    K tasked:                  Yes
    wK tasked:                  No
    OpenMP threads:              1
    Integrals threads:           1
    Memory (MB):               375
    Algorithm:                Core
    Integral Cache:           NONE
    Schwarz Cutoff:          1E-12
    Fitting Condition:       1E-12

   => Auxiliary Basis Set <=

  Basis Set: (3-21G AUX)
    Blend: DEF2-SVP-JKFIT
    Number of shells: 173
    Number of basis function: 613
    Number of Cartesian functions: 613
    Spherical Harmonics?: false
    Max angular momentum: 4

  Minimum eigenvalue in the overlap matrix is 1.2759224053E-02.
  Using Symmetric Orthogonalization.

  SCF Guess: Orbitals guess was supplied from a previous computation.

  ==> Iterations <==

                           Total Energy        Delta E     RMS |[F,P]|

   @DF-UKS iter   0:  -247.58870866704768   -2.47589e+02   1.61667e-03 
   @DF-UKS iter   1:  -247.61709498384431   -2.83863e-02   1.76751e-04 
   @DF-UKS iter   2:  -247.61710434976681   -9.36592e-06   2.02231e-04 DIIS
   @DF-UKS iter   3:  -247.61718559204411   -8.12423e-05   4.80204e-05 DIIS
   @DF-UKS iter   4:  -247.61719031823679   -4.72619e-06   1.76990e-05 DIIS
   @DF-UKS iter   5:  -247.61719103994022   -7.21703e-07   6.92310e-06 DIIS
   @DF-UKS iter   6:  -247.61719134495280   -3.05013e-07   3.00749e-06 DIIS
   @DF-UKS iter   7:  -247.61719140890762   -6.39548e-08   1.91141e-06 DIIS
   @DF-UKS iter   8:  -247.61719142360124   -1.46936e-08   6.67214e-07 DIIS
   @DF-UKS iter   9:  -247.61719142612679   -2.52555e-09   3.15166e-07 DIIS
   @DF-UKS iter  10:  -247.61719142648872   -3.61922e-10   8.12879e-08 DIIS
   @DF-UKS iter  11:  -247.61719142651486   -2.61480e-11   6.01198e-08 DIIS
   @DF-UKS iter  12:  -247.61719142652254   -7.67386e-12   8.95783e-09 DIIS

  ==> Post-Iterations <==

   @Spin Contamination Metric:   2.531955277E-02
   @S^2 Expected:                7.500000000E-01
   @S^2 Observed:                7.753195528E-01
   @S   Expected:                5.000000000E-01
   @S   Observed:                5.000000000E-01

    Orbital Energies [Eh]
    ---------------------

    Alpha Occupied:                                                       

       1A    -19.036860     2A    -14.245725     3A    -10.145187  
       4A    -10.135228     5A    -10.093132     6A     -1.014074  
       7A     -0.889465     8A     -0.720176     9A     -0.643739  
      10A     -0.571291    11A     -0.508413    12A     -0.489030  
      13A     -0.455069    14A     -0.415619    15A     -0.398203  
      16A     -0.362919    17A     -0.351473    18A     -0.321256  
      19A     -0.301385    20A     -0.209008    21A     -0.113948  

    Alpha Virtual:                                                        

      22A      0.079151    23A      0.097467    24A      0.108357  
      25A      0.144000    26A      0.161818    27A      0.194003  
      28A      0.205144    29A      0.212519    30A      0.226432  
      31A      0.264789    32A      0.356420    33A      0.402622  
      34A      0.662008    35A      0.704277    36A      0.733046  
      37A      0.760732    38A      0.802391    39A      0.810563  
      40A      0.847529    41A      0.884393    42A      0.922422  
      43A      0.954058    44A      0.981448    45A      1.019797  
      46A      1.054256    47A      1.075614    48A      1.098309  
      49A      1.119672    50A      1.149507    51A      1.276765  
      52A      1.367840    53A      1.381868    54A      1.483165  
      55A      1.524134    56A      1.623253    57A      1.663179  
      58A      1.792456    59A      2.039151    60A      2.485750  
      61A      2.951566  

    Beta Occupied:                                                        

       1A    -19.033224     2A    -14.243515     3A    -10.134225  
       4A    -10.130063     5A    -10.095575     6A     -1.004680  
       7A     -0.883065     8A     -0.716366     9A     -0.623855  
      10A     -0.567217    11A     -0.506170    12A     -0.481332  
      13A     -0.452165    14A     -0.408770    15A     -0.394901  
      16A     -0.356597    17A     -0.328674    18A     -0.304278  
      19A     -0.287525    20A     -0.191504  

    Beta Virtual:                                                         

      21A     -0.003774    22A      0.097099    23A      0.102276  
      24A      0.116920    25A      0.145541    26A      0.167245  
      27A      0.198398    28A      0.206270    29A      0.220565  
      30A      0.231589    31A      0.277857    32A      0.362911  
      33A      0.404531    34A      0.668552    35A      0.708268  
      36A      0.744485    37A      0.779071    38A      0.813194  
      39A      0.820090    40A      0.858013    41A      0.889070  
      42A      0.930673    43A      0.956744    44A      0.984236  
      45A      1.020853    46A      1.057443    47A      1.077842  
      48A      1.100948    49A      1.124905    50A      1.157699  
      51A      1.279266    52A      1.369167    53A      1.391359  
      54A      1.494787    55A      1.535876    56A      1.630360  
      57A      1.672831    58A      1.795852    59A      2.043388  
      60A      2.491130    61A      2.959707  

    Final Occupation by Irrep:
              A 
    DOCC [    20 ]
    SOCC [     1 ]

  Energy converged.

  @DF-UKS Final Energy:  -247.61719142652254

   => Energetics <=

    Nuclear Repulsion Energy =            166.9893386219093259
    One-Electron Energy =                -666.5322369123132376
    Two-Electron Energy =                 279.9171641429172723
    DFT Exchange-Correlation Energy =     -27.9914572790359131
    Empirical Dispersion Energy =           0.0000000000000000
    VV10 Nonlocal Energy =                  0.0000000000000000
    Total Energy =                       -247.6171914265225382


  UHF NO Occupations:
  HONO-2 :   19  A 1.9997140
  HONO-1 :   20  A 1.9882420
  HONO-0 :   21  A 1.0000000
  LUNO+0 :   22  A 0.0117580
  LUNO+1 :   23  A 0.0002860
  LUNO+2 :   24  A 0.0001696
  LUNO+3 :   25  A 0.0001470



Properties will be evaluated at   0.000000,   0.000000,   0.000000 [a0]

Properties computed using the SCF density matrix

  Nuclear Dipole Moment: [e a0]
     X:     1.7192      Y:     0.8972      Z:     0.7177

  Electronic Dipole Moment: [e a0]
     X:    -1.1996      Y:    -0.4622      Z:    -0.6830

  Dipole Moment: [e a0]
     X:     0.5197      Y:     0.4350      Z:     0.0347     Total:     0.6786

  Dipole Moment: [D]
     X:     1.3208      Y:     1.1057      Z:     0.0883     Total:     1.7248


*** tstop() called on DESKTOP-QL22TIG at Thu Mar 21 14:29:57 2019
Module time:
	user time   =      10.75 seconds =       0.18 minutes
	system time =       0.45 seconds =       0.01 minutes
	total time  =         12 seconds =       0.20 minutes
Total time:
	user time   =      27.75 seconds =       0.46 minutes
	system time =       1.41 seconds =       0.02 minutes
	total time  =         32 seconds =       0.53 minutes

*** tstart() called on DESKTOP-QL22TIG
*** at Thu Mar 21 14:29:57 2019


         ------------------------------------------------------------
                                   SCF GRAD                          
                          Rob Parrish, Justin Turney,                
                       Andy Simmonett, and Alex Sokolov              
         ------------------------------------------------------------

  ==> Geometry <==

    Molecular point group: c1
    Full point group: C1

    Geometry (in Angstrom), charge = 0, multiplicity = 2:

       Center              X                  Y                   Z               Mass       
    ------------   -----------------  -----------------  -----------------  -----------------
         C            0.374066879763     0.894117657675    -0.279628177573    12.000000000000
         H            0.047301234104     0.532151640784    -1.249869239829     1.007825032070
         H           -0.061894904130     1.829203182925     0.051172947987     1.007825032070
         C            1.555941715549     0.482158875251     0.262154028486    12.000000000000
         H            1.944383367029     0.957613184863     1.157816213801     1.007825032070
         C           -1.395740527529    -0.336660106877     0.541754077256    12.000000000000
         H           -0.927033783118    -1.313418822368     0.485633678550     1.007825032070
         H           -1.500690535989     0.079163899980     1.547428431464     1.007825032070
         N            2.258194019078    -0.683350498333    -0.117600738849    14.003074004780
         H            2.019532463572    -1.079361413859    -1.034035488919     1.007825032070
         H            3.265881011218    -0.692459968049     0.064426251045     1.007825032070
         O           -2.494609154471    -0.241955243514    -0.338703919111    15.994914619560
         H           -2.933798307163     0.643290091042    -0.255621236040     1.007825032070

  Nuclear repulsion =  166.989338621909326

  ==> Basis Set <==

  Basis Set: 3-21G
    Blend: 3-21G
    Number of shells: 41
    Number of basis function: 61
    Number of Cartesian functions: 61
    Spherical Harmonics?: false
    Max angular momentum: 1

  ==> DFJKGrad: Density-Fitted SCF Gradients <==

    Gradient:                    1
    J tasked:                  Yes
    K tasked:                  Yes
    wK tasked:                  No
    OpenMP threads:              1
    Integrals threads:           1
    Memory (MB):               375
    Schwarz Cutoff:          0E+00
    Fitting Condition:       1E-12

   => Auxiliary Basis Set <=

  Basis Set: (3-21G AUX)
    Blend: DEF2-SVP-JKFIT
    Number of shells: 173
    Number of basis function: 613
    Number of Cartesian functions: 613
    Spherical Harmonics?: false
    Max angular momentum: 4

  ==> DFT Potential <==

   => Composite Functional: B3LYP <= 

    B3LYP Hyb-GGA Exchange-Correlation Functional

    P. J. Stephens, F. J. Devlin, C. F. Chabalowski, and M. J. Frisch, J. Phys. Chem. 98, 11623 (1994)

    Deriv               =              1
    GGA                 =           TRUE
    Meta                =          FALSE

    Exchange Hybrid     =           TRUE
    MP2 Hybrid          =          FALSE

   => Exchange Functionals <=

    0.0800   Slater exchange
    0.7200         Becke 88

   => Exact (HF) Exchange <=

    0.2000               HF 

   => Correlation Functionals <=

    0.1900   Vosko, Wilk & Nusair (VWN5_RPA)
    0.8100   Lee, Yang & Parr

   => Molecular Quadrature <=

    Radial Scheme       =       TREUTLER
    Pruning Scheme      =           FLAT
    Nuclear Scheme      =       TREUTLER

    BS radius alpha     =              1
    Pruning alpha       =              1
    Radial Points       =             75
    Spherical Points    =            302
    Total Points        =         285441
    Total Blocks        =           2211
    Max Points          =            256
    Max Functions       =             57


  -Total Gradient:
     Atom            X                  Y                   Z
    ------   -----------------  -----------------  -----------------
       1        0.005355788066     0.001912166205     0.000149584054
       2        0.000010755300    -0.000456503191     0.000058041964
       3       -0.000625750016    -0.000062443321     0.000265610060
       4       -0.003854905697     0.005532090504    -0.001010072930
       5       -0.000609171930     0.000242937713     0.000387798566
       6       -0.005397121655    -0.004458136131    -0.003011605387
       7        0.001285345408    -0.000596107185     0.001295958607
       8        0.000524750837     0.000209453225     0.001165466674
       9       -0.002789160670    -0.003563091776     0.006024358957
      10        0.000316863065    -0.001989144701    -0.005952581334
      11        0.005413121454     0.000094952915    -0.001054437536
      12        0.002388372532     0.004521048649     0.003788357667
      13       -0.001997808913    -0.001390883082    -0.002115119650


*** tstop() called on DESKTOP-QL22TIG at Thu Mar 21 14:29:59 2019
Module time:
	user time   =       2.01 seconds =       0.03 minutes
	system time =       0.08 seconds =       0.00 minutes
	total time  =          2 seconds =       0.03 minutes
Total time:
	user time   =      29.76 seconds =       0.50 minutes
	system time =       1.49 seconds =       0.02 minutes
	total time  =         34 seconds =       0.57 minutes

			-----------------------------------------
			 OPTKING 2.0: for geometry optimizations 
			  - R.A. King,  Bethel University        
			-----------------------------------------

	Previous internal coordinate definitions found.
	---Fragment 1 Geometry and Gradient---
	 C           0.7068839581        1.6896375036       -0.5284206747
	 H           0.0893863782        1.0056208622       -2.3619105652
	 H          -0.1169644178        3.4566930571        0.0967028571
	 C           2.9403037211        0.9111482268        0.4953993185
	 H           3.6743520610        1.8096266606        2.1879555563
	 C          -2.6375673496       -0.6361954019        1.0237668374
	 H          -1.7518399660       -2.4820018721        0.9177146534
	 H          -2.8358941232        0.1495980906        2.9242159457
	 N           4.2673682510       -1.2913452946       -0.2222331894
	 H           3.8163632726       -2.0396974706       -1.9540438857
	 H           6.1716206938       -1.3085596976        0.1217479702
	 O          -4.7141281105       -0.4572291467       -0.6400576473
	 H          -5.5440753297        1.2156420961       -0.4830541299
	             0.0053557881        0.0019121662        0.0001495841
	             0.0000107553       -0.0004565032        0.0000580420
	            -0.0006257500       -0.0000624433        0.0002656101
	            -0.0038549057        0.0055320905       -0.0010100729
	            -0.0006091719        0.0002429377        0.0003877986
	            -0.0053971217       -0.0044581361       -0.0030116054
	             0.0012853454       -0.0005961072        0.0012959586
	             0.0005247508        0.0002094532        0.0011654667
	            -0.0027891607       -0.0035630918        0.0060243590
	             0.0003168631       -0.0019891447       -0.0059525813
	             0.0054131215        0.0000949529       -0.0010544375
	             0.0023883725        0.0045210486        0.0037883577
	            -0.0019978089       -0.0013908831       -0.0021151196

	---Fragment 1 Intrafragment Coordinates---
	 - Coordinate -           - BOHR/RAD -       - ANG/DEG -
	 R(1,2)           =         2.052040	       1.085893
	 R(1,3)           =         2.047435	       1.083456
	 R(1,4)           =         2.577289	       1.363842
	 R(1,6)           =         4.359374	       2.306881
	 R(4,5)           =         2.052032	       1.085889
	 R(4,9)           =         2.669658	       1.412722
	 R(6,7)           =         2.050064	       1.084847
	 R(6,8)           =         2.066038	       1.093300
	 R(6,12)          =         2.666917	       1.411272
	 R(9,10)          =         1.939743	       1.026468
	 R(9,11)          =         1.935148	       1.024036
	 R(12,13)         =         1.874023	       0.991690
	 B(1,4,5)         =         2.100632	     120.357361
	 B(1,4,9)         =         2.181183	     124.972580
	 B(1,6,7)         =         1.701655	      97.497676
	 B(1,6,8)         =         1.770364	     101.434375
	 B(1,6,12)        =         1.917098	     109.841628
	 B(2,1,3)         =         2.025734	     116.065991
	 B(2,1,4)         =         2.111829	     120.998914
	 B(2,1,6)         =         1.480105	      84.803760
	 B(3,1,4)         =         2.080707	     119.215747
	 B(3,1,6)         =         1.613860	      92.467358
	 B(4,1,6)         =         1.941454	     111.237107
	 B(4,9,10)        =         2.029411	     116.276663
	 B(4,9,11)        =         2.036120	     116.661080
	 B(5,4,9)         =         1.987918	     113.899314
	 B(6,12,13)       =         1.931006	     110.638472
	 B(7,6,8)         =         2.016954	     115.562953
	 B(7,6,12)        =         1.943952	     111.380221
	 B(8,6,12)        =         2.064177	     118.268625
	 B(10,9,11)       =         1.964990	     112.585609
	 D(1,4,9,10)      =         0.337228	      19.321743
	 D(1,4,9,11)      =         2.722229	     155.972226
	 D(1,6,12,13)     =        -1.310795	     -75.103049
	 D(2,1,4,5)       =         2.982249	     170.870300
	 D(2,1,4,9)       =        -0.345846	     -19.815533
	 D(2,1,6,7)       =         1.362156	      78.045761
	 D(2,1,6,8)       =        -2.860199	    -163.877328
	 D(2,1,6,12)      =        -0.662455	     -37.955852
	 D(3,1,4,5)       =         0.234742	      13.449728
	 D(3,1,4,9)       =        -3.093354	    -177.236104
	 D(3,1,6,7)       =        -2.897183	    -165.996372
	 D(3,1,6,8)       =        -0.836352	     -47.919462
	 D(3,1,6,12)      =         1.361392	      78.002014
	 D(4,1,6,7)       =        -0.754888	     -43.251899
	 D(4,1,6,8)       =         1.305943	      74.825012
	 D(4,1,6,12)      =        -2.779498	    -159.253512
	 D(5,4,1,6)       =        -1.609708	     -92.229480
	 D(5,4,9,10)      =        -2.980276	    -170.757228
	 D(5,4,9,11)      =        -0.595275	     -34.106746
	 D(6,1,4,9)       =         1.345382	      77.084687
	 D(7,6,12,13)     =         3.107113	     178.024475
	 D(8,6,12,13)     =         0.708191	      40.576381

	Current energy   :      -247.6171914265

	Energy change for the previous step:
		Projected    :        -0.0025481401
		Actual       :        -0.0025811353

	Performing Bofill update.
	Previous computed or guess Hessian on step 1.
	Steps to be used in Hessian update: 1
	Taking PRFO optimization step.
	Maximizing along 1 lowest eigenvalue of Hessian.

 RFO min eigenvalues
 -0.003091 -0.000000 -0.000000 -0.000000 -0.000000 -0.000000 -0.000000 -0.000000
 -0.000000 -0.000000 -0.000000  0.000000  0.000000  0.000000  0.000000  0.000000
  0.000000  0.000000  0.000000  0.000000  0.002001  0.006192  0.011286  0.017254
  0.021338  0.022998  0.047757  0.051076  0.053651  0.057233  0.068464  0.091710
  0.102543  0.119860  0.134206  0.158267  0.159039  0.159998  0.174643  0.219654
  0.220826  0.224276  0.345563  0.350667  0.351484  0.353137  0.354586  0.450828
  0.452293  0.461384  0.485127  0.522213  0.533958

 RFO max eigenvalues
 -0.000000  0.000000
	Change in coordinate exceeds step limit of    0.50000.
	Scaling displacements by    0.79734
	|RFO target step|  :        0.5000000000
	RFO gradient       :       -0.0049298876
	RFO hessian        :        0.0051419393
	Projected Delta(E) :       -0.0014577611

	Back-transformation to cartesian coordinates...
	Could not converge backtransformation.
	Using first guess instead.

	--- Internal Coordinate Step in ANG or DEG, aJ/ANG or AJ/DEG ---
	 ---------------------------------------------------------------------------
	   Coordinate                Previous        Force       Change         New 
	   ----------                --------       ------       ------       ------
	    1 R(1,2)          =      1.085893    -0.000809     0.000129     1.086022
	    2 R(1,3)          =      1.083456    -0.002307    -0.000296     1.083160
	    3 R(1,4)          =      1.363842     0.017023     0.005069     1.368911
	    4 R(1,6)          =      2.306881    -0.031141    -0.110275     2.196607
	    5 R(4,5)          =      1.085889    -0.001706    -0.000001     1.085888
	    6 R(4,9)          =      1.412722    -0.051271    -0.013075     1.399648
	    7 R(6,7)          =      1.084847    -0.008445    -0.000801     1.084046
	    8 R(6,8)          =      1.093300    -0.009097    -0.001577     1.091723
	    9 R(6,12)         =      1.411272     0.009396     0.009484     1.420756
	   10 R(9,10)         =      1.026468    -0.049508    -0.004367     1.022101
	   11 R(9,11)         =      1.024036    -0.042321    -0.005638     1.018398
	   12 R(12,13)        =      0.991690     0.004405     0.009071     1.000761
	   13 B(1,4,5)        =    120.357361     0.000087     0.809706   121.167067
	   14 B(1,4,9)        =    124.972580    -0.000078    -0.491286   124.481294
	   15 B(1,6,7)        =     97.497676     0.000023    -0.240670    97.257006
	   16 B(1,6,8)        =    101.434375     0.000020     0.369499   101.803874
	   17 B(1,6,12)       =    109.841628     0.000033     0.078445   109.920073
	   18 B(2,1,3)        =    116.065991    -0.000004    -0.128319   115.937672
	   19 B(2,1,4)        =    120.998914     0.000009     0.095977   121.094890
	   20 B(2,1,6)        =     84.803760     0.000035     0.057441    84.861202
	   21 B(3,1,4)        =    119.215747    -0.000010     0.035981   119.251728
	   22 B(3,1,6)        =     92.467358     0.000075     0.824837    93.292195
	   23 B(4,1,6)        =    111.237107    -0.000094    -0.870625   110.366482
	   24 B(4,9,10)       =    116.276663    -0.000030     1.650917   117.927580
	   25 B(4,9,11)       =    116.661080    -0.000006     1.972635   118.633714
	   26 B(5,4,9)        =    113.899314    -0.000008    -0.055652   113.843662
	   27 B(6,12,13)      =    110.638472    -0.000452    -4.166446   106.472026
	   28 B(7,6,8)        =    115.562953     0.000047     0.771795   116.334748
	   29 B(7,6,12)       =    111.380221    -0.000092    -1.703916   109.676305
	   30 B(8,6,12)       =    118.268625    -0.000008     0.738686   119.007311
	   31 B(10,9,11)      =    112.585609     0.000122     3.633460   116.219070
	   32 D(1,4,9,10)     =     19.321743    -0.000018    -7.568971    11.752772
	   33 D(1,4,9,11)     =    155.972226     0.000019     4.999924   160.972150
	   34 D(1,6,12,13)    =    -75.103049    -0.000001     5.249624   -69.853425
	   35 D(2,1,4,5)      =    170.870300    -0.000001    -0.959981   169.910318
	   36 D(2,1,4,9)      =    -19.815533    -0.000000     1.037910   -18.777624
	   37 D(2,1,6,7)      =     78.045761    -0.000008     4.345545    82.391306
	   38 D(2,1,6,8)      =   -163.877328     0.000006     5.180898  -158.696430
	   39 D(2,1,6,12)     =    -37.955852     0.000011     6.319823   -31.636029
	   40 D(3,1,4,5)      =     13.449728     0.000001    -0.941878    12.507850
	   41 D(3,1,4,9)      =   -177.236104     0.000003     1.056013  -176.180092
	   42 D(3,1,6,7)      =   -165.996372    -0.000010     4.154597  -161.841775
	   43 D(3,1,6,8)      =    -47.919462     0.000004     4.989951   -42.929511
	   44 D(3,1,6,12)     =     78.002014     0.000009     6.128876    84.130890
	   45 D(4,1,6,7)      =    -43.251899    -0.000010     4.328787   -38.923111
	   46 D(4,1,6,8)      =     74.825012     0.000004     5.164140    79.989152
	   47 D(4,1,6,12)     =   -159.253512     0.000008     6.303065  -152.950447
	   48 D(5,4,1,6)      =    -92.229480    -0.000004    -1.410981   -93.640460
	   49 D(5,4,9,10)     =   -170.757228    -0.000015    -5.613698  -176.370927
	   50 D(5,4,9,11)     =    -34.106746     0.000022     6.955197   -27.151549
	   51 D(6,1,4,9)      =     77.084687    -0.000003     0.586910    77.671597
	   52 D(7,6,12,13)    =    178.024475    -0.000001     6.322313   184.346788
	   53 D(8,6,12,13)    =     40.576381     0.000009     6.296309    46.872690
	 ---------------------------------------------------------------------------
	Successfully symmetrized geometry.

  ==> Convergence Check <==

  Measures of convergence in internal coordinates in au.
  Criteria marked as inactive (o), active & met (*), and active & unmet ( ).
  ---------------------------------------------------------------------------------------------
   Step     Total Energy     Delta E     MAX Force     RMS Force      MAX Disp      RMS Disp   
  ---------------------------------------------------------------------------------------------
    Convergence Criteria    1.00e-06 *    3.00e-04 *             o    1.20e-03 *             o
  ---------------------------------------------------------------------------------------------
      2    -247.61719143   -2.58e-03      6.22e-03      1.82e-03 o    2.08e-01      6.42e-02 o  ~
  ---------------------------------------------------------------------------------------------

	Writing optimization data to binary file.
	Structure for next step:
	Cartesian Geometry (in Angstrom)
	    C     0.3250421602   0.9076905095  -0.2394619668
	    H    -0.0214501002   0.5701851529  -1.2118183443
	    H    -0.1030231333   1.8353893047   0.1202201978
	    C     1.5199108661   0.4793066640   0.2730754926
	    H     1.9450811199   0.9339365476   1.1628473158
	    C    -1.3254023978  -0.3075184417   0.5507152931
	    H    -0.8145523898  -1.2633886841   0.5283710772
	    H    -1.4782039380   0.1370322628   1.5360501144
	    N     2.2076384674  -0.6583909007  -0.1647467499
	    H     1.8947682383  -1.1034545539  -1.0300334981
	    H     3.1992504250  -0.7425710705   0.0514778299
	    O    -2.4036448416  -0.3196198027  -0.3743762459
	    H    -2.7938809984   0.6018954919  -0.3673936877
			--------------------------
			 OPTKING Finished Execution 
			--------------------------

    Structure for next step:
    Molecular point group: c1
    Full point group: C1

    Geometry (in Angstrom), charge = 0, multiplicity = 2:

    C            0.317689644317     0.913110883354    -0.232883156149
    H           -0.028802616061     0.575605526791    -1.205239533644
    H           -0.110375649154     1.840809678559     0.126799008530
    C            1.512558350178     0.484727037902     0.279654303341
    H            1.937728604029     0.939356921450     1.169426126482
    C           -1.332754913692    -0.302098067817     0.557294103828
    H           -0.821904905702    -1.257968310168     0.534949887936
    H           -1.485556453861     0.142452636642     1.542628925100
    N            2.200285951486    -0.652970526803    -0.158167939190
    H            1.887415722430    -1.098034180045    -1.023454687399
    H            3.191897909157    -0.737150696637     0.058056640649
    O           -2.410997357514    -0.314199428856    -0.367797435162
    H           -2.801233514299     0.607315865744    -0.360814876958

gradient() will perform analytic gradient computation.

*** tstart() called on DESKTOP-QL22TIG
*** at Thu Mar 21 14:29:59 2019

   => Loading Basis Set <=

    Name: 3-21G
    Role: ORBITAL
    Keyword: BASIS
    atoms 1, 4, 6                entry C          line    68 file /home/wderricotte/src/psi4conda/share/psi4/basis/3-21g.gbs 
    atoms 2-3, 5, 7-8, 10-11, 13 entry H          line    21 file /home/wderricotte/src/psi4conda/share/psi4/basis/3-21g.gbs 
    atoms 9                      entry N          line    79 file /home/wderricotte/src/psi4conda/share/psi4/basis/3-21g.gbs 
    atoms 12                     entry O          line    90 file /home/wderricotte/src/psi4conda/share/psi4/basis/3-21g.gbs 


         ---------------------------------------------------------
                                   SCF
            by Justin Turney, Rob Parrish, Andy Simmonett
                             and Daniel Smith
                              UKS Reference
                        1 Threads,    500 MiB Core
         ---------------------------------------------------------

  ==> Geometry <==

    Molecular point group: c1
    Full point group: C1

    Geometry (in Angstrom), charge = 0, multiplicity = 2:

       Center              X                  Y                   Z               Mass       
    ------------   -----------------  -----------------  -----------------  -----------------
         C            0.317689644317     0.913110883354    -0.232883156149    12.000000000000
         H           -0.028802616061     0.575605526791    -1.205239533644     1.007825032070
         H           -0.110375649154     1.840809678559     0.126799008530     1.007825032070
         C            1.512558350178     0.484727037902     0.279654303341    12.000000000000
         H            1.937728604029     0.939356921450     1.169426126482     1.007825032070
         C           -1.332754913692    -0.302098067817     0.557294103828    12.000000000000
         H           -0.821904905702    -1.257968310168     0.534949887936     1.007825032070
         H           -1.485556453861     0.142452636642     1.542628925100     1.007825032070
         N            2.200285951486    -0.652970526803    -0.158167939190    14.003074004780
         H            1.887415722430    -1.098034180045    -1.023454687399     1.007825032070
         H            3.191897909157    -0.737150696637     0.058056640649     1.007825032070
         O           -2.410997357514    -0.314199428856    -0.367797435162    15.994914619560
         H           -2.801233514299     0.607315865744    -0.360814876958     1.007825032070

  Running in c1 symmetry.

  Rotational constants: A =      0.38111  B =      0.06642  C =      0.06261 [cm^-1]
  Rotational constants: A =  11425.40177  B =   1991.18153  C =   1877.04934 [MHz]
  Nuclear repulsion =  169.208838814863441

  Charge       = 0
  Multiplicity = 2
  Electrons    = 41
  Nalpha       = 21
  Nbeta        = 20

  ==> Algorithm <==

  SCF Algorithm Type is DF.
  DIIS enabled.
  MOM disabled.
  Fractional occupation disabled.
  Guess Type is READ.
  Energy threshold   = 1.00e-08
  Density threshold  = 1.00e-08
  Integral threshold = 0.00e+00

  ==> Primary Basis <==

  Basis Set: 3-21G
    Blend: 3-21G
    Number of shells: 41
    Number of basis function: 61
    Number of Cartesian functions: 61
    Spherical Harmonics?: false
    Max angular momentum: 1

  ==> DFT Potential <==

   => Composite Functional: B3LYP <= 

    B3LYP Hyb-GGA Exchange-Correlation Functional

    P. J. Stephens, F. J. Devlin, C. F. Chabalowski, and M. J. Frisch, J. Phys. Chem. 98, 11623 (1994)

    Deriv               =              1
    GGA                 =           TRUE
    Meta                =          FALSE

    Exchange Hybrid     =           TRUE
    MP2 Hybrid          =          FALSE

   => Exchange Functionals <=

    0.0800   Slater exchange
    0.7200         Becke 88

   => Exact (HF) Exchange <=

    0.2000               HF 

   => Correlation Functionals <=

    0.1900   Vosko, Wilk & Nusair (VWN5_RPA)
    0.8100   Lee, Yang & Parr

   => Molecular Quadrature <=

    Radial Scheme       =       TREUTLER
    Pruning Scheme      =           FLAT
    Nuclear Scheme      =       TREUTLER

    BS radius alpha     =              1
    Pruning alpha       =              1
    Radial Points       =             75
    Spherical Points    =            302
    Total Points        =         285362
    Total Blocks        =           2195
    Max Points          =            256
    Max Functions       =             57

   => Loading Basis Set <=

    Name: (3-21G AUX)
    Role: JKFIT
    Keyword: DF_BASIS_SCF
    atoms 1, 4, 6                entry C          line   203 file /home/wderricotte/src/psi4conda/share/psi4/basis/def2-svp-jkfit.gbs 
    atoms 2-3, 5, 7-8, 10-11, 13 entry H          line    23 file /home/wderricotte/src/psi4conda/share/psi4/basis/def2-svp-jkfit.gbs 
    atoms 9                      entry N          line   263 file /home/wderricotte/src/psi4conda/share/psi4/basis/def2-svp-jkfit.gbs 
    atoms 12                     entry O          line   323 file /home/wderricotte/src/psi4conda/share/psi4/basis/def2-svp-jkfit.gbs 

  Reading orbitals from file 180, no projection.

  ==> Pre-Iterations <==

   -------------------------------------------------------
    Irrep   Nso     Nmo     Nalpha   Nbeta   Ndocc  Nsocc
   -------------------------------------------------------
     A         61      61       0       0       0       0
   -------------------------------------------------------
    Total      61      61      21      20      20       1
   -------------------------------------------------------

  ==> Integral Setup <==

  ==> DiskDFJK: Density-Fitted J/K Matrices <==

    J tasked:                  Yes
    K tasked:                  Yes
    wK tasked:                  No
    OpenMP threads:              1
    Integrals threads:           1
    Memory (MB):               375
    Algorithm:                Core
    Integral Cache:           NONE
    Schwarz Cutoff:          1E-12
    Fitting Condition:       1E-12

   => Auxiliary Basis Set <=

  Basis Set: (3-21G AUX)
    Blend: DEF2-SVP-JKFIT
    Number of shells: 173
    Number of basis function: 613
    Number of Cartesian functions: 613
    Spherical Harmonics?: false
    Max angular momentum: 4

  Minimum eigenvalue in the overlap matrix is 1.2248389459E-02.
  Using Symmetric Orthogonalization.

  SCF Guess: Orbitals guess was supplied from a previous computation.

  ==> Iterations <==

                           Total Energy        Delta E     RMS |[F,P]|

   @DF-UKS iter   0:  -247.62005440497148   -2.47620e+02   2.40022e-03 
   @DF-UKS iter   1:  -247.61826551331870    1.78889e-03   3.62649e-04 
   @DF-UKS iter   2:  -247.61823924057569    2.62727e-05   5.07193e-04 DIIS
   @DF-UKS iter   3:  -247.61880247550420   -5.63235e-04   8.78371e-05 DIIS
   @DF-UKS iter   4:  -247.61883344069764   -3.09652e-05   4.54749e-05 DIIS
   @DF-UKS iter   5:  -247.61884455422256   -1.11135e-05   1.72972e-05 DIIS
   @DF-UKS iter   6:  -247.61884787806110   -3.32384e-06   1.22170e-05 DIIS
   @DF-UKS iter   7:  -247.61884837708652   -4.99025e-07   3.89387e-06 DIIS
   @DF-UKS iter   8:  -247.61884842219882   -4.51123e-08   1.37608e-06 DIIS
   @DF-UKS iter   9:  -247.61884842602467   -3.82585e-09   6.52480e-07 DIIS
   @DF-UKS iter  10:  -247.61884842715727   -1.13261e-09   1.37973e-07 DIIS
   @DF-UKS iter  11:  -247.61884842722515   -6.78710e-11   1.21092e-07 DIIS
   @DF-UKS iter  12:  -247.61884842725402   -2.88765e-11   2.06945e-08 DIIS
   @DF-UKS iter  13:  -247.61884842725669   -2.67164e-12   7.12542e-09 DIIS

  ==> Post-Iterations <==

   @Spin Contamination Metric:   2.630346928E-02
   @S^2 Expected:                7.500000000E-01
   @S^2 Observed:                7.763034693E-01
   @S   Expected:                5.000000000E-01
   @S   Observed:                5.000000000E-01

    Orbital Energies [Eh]
    ---------------------

    Alpha Occupied:                                                       

       1A    -19.034632     2A    -14.246189     3A    -10.144460  
       4A    -10.132890     5A    -10.095722     6A     -1.009131  
       7A     -0.891297     8A     -0.721901     9A     -0.638814  
      10A     -0.574600    11A     -0.516104    12A     -0.483949  
      13A     -0.458684    14A     -0.412910    15A     -0.398374  
      16A     -0.366944    17A     -0.351441    18A     -0.324480  
      19A     -0.298199    20A     -0.212427    21A     -0.107347  

    Alpha Virtual:                                                        

      22A      0.086798    23A      0.098454    24A      0.108862  
      25A      0.143276    26A      0.161759    27A      0.196618  
      28A      0.206317    29A      0.211209    30A      0.226430  
      31A      0.260535    32A      0.362417    33A      0.400231  
      34A      0.665782    35A      0.701967    36A      0.734565  
      37A      0.753124    38A      0.806776    39A      0.817963  
      40A      0.846944    41A      0.887128    42A      0.930805  
      43A      0.942746    44A      0.979012    45A      1.019549  
      46A      1.055282    47A      1.075625    48A      1.105786  
      49A      1.120743    50A      1.150822    51A      1.275592  
      52A      1.371693    53A      1.397800    54A      1.508437  
      55A      1.554511    56A      1.653391    57A      1.699361  
      58A      1.774394    59A      2.082012    60A      2.475443  
      61A      2.970109  

    Beta Occupied:                                                        

       1A    -19.031794     2A    -14.243299     3A    -10.134527  
       4A    -10.126638     5A    -10.098356     6A     -1.001495  
       7A     -0.882841     8A     -0.716674     9A     -0.620783  
      10A     -0.569361    11A     -0.513490    12A     -0.477374  
      13A     -0.454796    14A     -0.407793    15A     -0.393770  
      16A     -0.359902    17A     -0.333888    18A     -0.304628  
      19A     -0.284150    20A     -0.193581  

    Beta Virtual:                                                         

      21A     -0.001570    22A      0.098011    23A      0.104428  
      24A      0.124245    25A      0.145128    26A      0.166955  
      27A      0.200540    28A      0.208183    29A      0.218883  
      30A      0.231667    31A      0.272388    32A      0.370750  
      33A      0.402691    34A      0.673170    35A      0.705754  
      36A      0.747673    37A      0.766735    38A      0.821804  
      39A      0.826507    40A      0.855628    41A      0.890790  
      42A      0.937936    43A      0.947486    44A      0.982296  
      45A      1.020930    46A      1.058681    47A      1.078272  
      48A      1.110966    49A      1.126026    50A      1.158863  
      51A      1.278849    52A      1.374469    53A      1.407448  
      54A      1.520867    55A      1.564423    56A      1.657029  
      57A      1.710233    58A      1.777012    59A      2.085355  
      60A      2.482705    61A      2.976593  

    Final Occupation by Irrep:
              A 
    DOCC [    20 ]
    SOCC [     1 ]

  Energy converged.

  @DF-UKS Final Energy:  -247.61884842725669

   => Energetics <=

    Nuclear Repulsion Energy =            169.2088388148634408
    One-Electron Energy =                -670.9648797653792371
    Two-Electron Energy =                 282.1367188113761699
    DFT Exchange-Correlation Energy =     -27.9995262881170817
    Empirical Dispersion Energy =           0.0000000000000000
    VV10 Nonlocal Energy =                  0.0000000000000000
    Total Energy =                       -247.6188484272566939


  UHF NO Occupations:
  HONO-2 :   19  A 1.9997788
  HONO-1 :   20  A 1.9877337
  HONO-0 :   21  A 1.0000000
  LUNO+0 :   22  A 0.0122663
  LUNO+1 :   23  A 0.0002212
  LUNO+2 :   24  A 0.0001846
  LUNO+3 :   25  A 0.0001409



Properties will be evaluated at   0.000000,   0.000000,   0.000000 [a0]

Properties computed using the SCF density matrix

  Nuclear Dipole Moment: [e a0]
     X:     1.6406      Y:     0.9495      Z:     0.7884

  Electronic Dipole Moment: [e a0]
     X:    -1.0367      Y:    -0.5931      Z:    -0.7480

  Dipole Moment: [e a0]
     X:     0.6038      Y:     0.3564      Z:     0.0404     Total:     0.7023

  Dipole Moment: [D]
     X:     1.5348      Y:     0.9058      Z:     0.1026     Total:     1.7851


*** tstop() called on DESKTOP-QL22TIG at Thu Mar 21 14:30:11 2019
Module time:
	user time   =      11.83 seconds =       0.20 minutes
	system time =       0.41 seconds =       0.01 minutes
	total time  =         12 seconds =       0.20 minutes
Total time:
	user time   =      41.59 seconds =       0.69 minutes
	system time =       1.91 seconds =       0.03 minutes
	total time  =         46 seconds =       0.77 minutes

*** tstart() called on DESKTOP-QL22TIG
*** at Thu Mar 21 14:30:11 2019


         ------------------------------------------------------------
                                   SCF GRAD                          
                          Rob Parrish, Justin Turney,                
                       Andy Simmonett, and Alex Sokolov              
         ------------------------------------------------------------

  ==> Geometry <==

    Molecular point group: c1
    Full point group: C1

    Geometry (in Angstrom), charge = 0, multiplicity = 2:

       Center              X                  Y                   Z               Mass       
    ------------   -----------------  -----------------  -----------------  -----------------
         C            0.317689644317     0.913110883354    -0.232883156149    12.000000000000
[...]

   => Molecular Quadrature <=

    Radial Scheme       =       TREUTLER
    Pruning Scheme      =           FLAT
    Nuclear Scheme      =       TREUTLER

    BS radius alpha     =              1
    Pruning alpha       =              1
    Radial Points       =             75
    Spherical Points    =            302
    Total Points        =         285419
    Total Blocks        =           2196
    Max Points          =            256
    Max Functions       =             57


  -Total Gradient:
     Atom            X                  Y                   Z
    ------   -----------------  -----------------  -----------------
       1       -0.000064708867    -0.000010706632     0.000024251350
       2       -0.000004119317     0.000036581760    -0.000010380457
       3        0.000033192104     0.000002394183     0.000019345825
       4        0.000044129017    -0.000062925915    -0.000012726260
       5        0.000005676040     0.000009546803    -0.000008117399
       6        0.000007735932    -0.000027606867    -0.000073171013
       7        0.000023847508     0.000025004559     0.000029101316
       8       -0.000013208938     0.000022401209    -0.000023705761
       9       -0.000028943320    -0.000018739635     0.000039307522
      10        0.000027724455     0.000023959286    -0.000012745702
      11       -0.000025784438     0.000004577619    -0.000003704238
      12        0.000011850905    -0.000003387101     0.000056788888
      13       -0.000006141214    -0.000014373058    -0.000001054414


*** tstop() called on DESKTOP-QL22TIG at Thu Mar 21 14:37:05 2019
Module time:
	user time   =       3.69 seconds =       0.06 minutes
	system time =       0.12 seconds =       0.00 minutes
	total time  =          3 seconds =       0.05 minutes
Total time:
	user time   =     433.86 seconds =       7.23 minutes
	system time =      16.47 seconds =       0.27 minutes
	total time  =        460 seconds =       7.67 minutes

			-----------------------------------------
			 OPTKING 2.0: for geometry optimizations 
			  - R.A. King,  Bethel University        
			-----------------------------------------

	Previous internal coordinate definitions found.
	---Fragment 1 Geometry and Gradient---
	 C           0.6733090909        1.9147518847       -0.3144572661
	 H          -0.1637175638        1.2974493761       -2.0813706055
	 H          -0.0049385329        3.6852813717        0.4539121163
	 C           2.9202910803        0.9617556847        0.5038121691
	 H           3.8638546067        1.7818214911        2.1306484539
	 C          -2.6985784272       -0.5190263933        1.2291187820
	 H          -1.6212865279       -2.2289508059        1.5489236067
	 H          -3.3782189310        0.4811872657        2.8998153614
	 N           4.0716211089       -1.2114894188       -0.4187388067
	 H           3.3867870558       -2.0534907150       -1.9953881547
	 H           5.8496100620       -1.6618232686        0.1133405821
	 O          -4.3985751662       -0.8380619815       -0.8242625825
	 H          -5.3529107346        0.7619109397       -1.0596555299
	            -0.0000647089       -0.0000107066        0.0000242513
	            -0.0000041193        0.0000365818       -0.0000103805
	             0.0000331921        0.0000023942        0.0000193458
	             0.0000441290       -0.0000629259       -0.0000127263
	             0.0000056760        0.0000095468       -0.0000081174
	             0.0000077359       -0.0000276069       -0.0000731710
	             0.0000238475        0.0000250046        0.0000291013
	            -0.0000132089        0.0000224012       -0.0000237058
	            -0.0000289433       -0.0000187396        0.0000393075
	             0.0000277245        0.0000239593       -0.0000127457
	            -0.0000257844        0.0000045776       -0.0000037042
	             0.0000118509       -0.0000033871        0.0000567889
	            -0.0000061412       -0.0000143731       -0.0000010544

	---Fragment 1 Intrafragment Coordinates---
	 - Coordinate -           - BOHR/RAD -       - ANG/DEG -
	 R(1,2)           =         2.050283	       1.084963
	 R(1,3)           =         2.045773	       1.082576
	 R(1,4)           =         2.574237	       1.362227
	 R(1,6)           =         4.435711	       2.347277
	 R(4,5)           =         2.051686	       1.085706
	 R(4,9)           =         2.626720	       1.390000
	 R(6,7)           =         2.046136	       1.082769
	 R(6,8)           =         2.062417	       1.091384
	 R(6,12)          =         2.684799	       1.420735
	 R(9,10)          =         1.914102	       1.012899
	 R(9,11)          =         1.909752	       1.010597
	 R(12,13)         =         1.877786	       0.993681
	 B(1,4,5)         =         2.100764	     120.364922
	 B(1,4,9)         =         2.186148	     125.257033
	 B(1,6,7)         =         1.683719	      96.469965
	 B(1,6,8)         =         1.840352	     105.444418
	 B(1,6,12)        =         1.854992	     106.283216
	 B(2,1,3)         =         2.036333	     116.673306
	 B(2,1,4)         =         2.116271	     121.253404
	 B(2,1,6)         =         1.394238	      79.883961
	 B(3,1,4)         =         2.083343	     119.366748
	 B(3,1,6)         =         1.663061	      95.286380
	 B(4,1,6)         =         1.928146	     110.474614
	 B(4,9,10)        =         2.090275	     119.763948
	 B(4,9,11)        =         2.100546	     120.352446
	 B(5,4,9)         =         1.990631	     114.054750
	 B(6,12,13)       =         1.892759	     108.447111
	 B(7,6,8)         =         2.039996	     116.883183
	 B(7,6,12)        =         1.932225	     110.708309
	 B(8,6,12)        =         2.058414	     117.938459
	 B(10,9,11)       =         2.047509	     117.313632
	 D(1,4,9,10)      =         0.176470	      10.110983
	 D(1,4,9,11)      =         2.992377	     171.450557
	 D(1,6,12,13)     =        -1.334110	     -76.438847
	 D(2,1,4,5)       =         2.990102	     171.320222
	 D(2,1,4,9)       =        -0.272427	     -15.608932
	 D(2,1,6,7)       =         1.691538	      96.918010
	 D(2,1,6,8)       =        -2.493262	    -142.853390
	 D(2,1,6,12)      =        -0.295006	     -16.902607
	 D(3,1,4,5)       =         0.184645	      10.579400
	 D(3,1,4,9)       =        -3.077884	    -176.349754
	 D(3,1,6,7)       =        -2.563658	    -146.886773
	 D(3,1,6,8)       =        -0.465273	     -26.658173
	 D(3,1,6,12)      =         1.732983	      99.292610
	 D(4,1,6,7)       =        -0.398173	     -22.813630
	 D(4,1,6,8)       =         1.700212	      97.414970
	 D(4,1,6,12)      =        -2.384717	    -136.634247
	 D(5,4,1,6)       =        -1.714997	     -98.262090
	 D(5,4,9,10)      =        -3.079363	    -176.434518
	 D(5,4,9,11)      =        -0.263456	     -15.094943
	 D(6,1,4,9)       =         1.305659	      74.808756
	 D(7,6,12,13)     =         3.140110	     179.915050
	 D(8,6,12,13)     =         0.724781	      41.526884

	Current energy   :      -247.6180609858

	Energy change for the previous step:
		Projected    :        -0.0000002334
		Actual       :        -0.0000003859

	Performing Bofill update.
	Previous computed or guess Hessian on step 1.
	Steps to be used in Hessian update: 29 28
	Taking PRFO optimization step.
	Maximizing along 1 lowest eigenvalue of Hessian.

 RFO min eigenvalues
 -0.000000 -0.000000 -0.000000 -0.000000 -0.000000 -0.000000 -0.000000 -0.000000
 -0.000000 -0.000000 -0.000000  0.000000  0.000000  0.000000  0.000000  0.000000
  0.000000  0.000000  0.000000  0.000000  0.000000  0.001652  0.003059  0.007256
  0.015353  0.020184  0.022769  0.049359  0.051357  0.054494  0.067410  0.088005
  0.091668  0.114723  0.131727  0.144874  0.152624  0.157302  0.158428  0.179645
  0.213314  0.219525  0.346313  0.350684  0.351515  0.354512  0.355486  0.443337
  0.450652  0.453499  0.460278  0.516193  0.521802

 RFO max eigenvalues
 -0.017179  0.000000
	|RFO target step|  :        0.0073682490
	RFO gradient       :       -0.0000557066
	RFO hessian        :        0.0075599402
	Projected Delta(E) :       -0.0000002052

	Back-transformation to cartesian coordinates...
	Could not converge backtransformation.
	Using first guess instead.

	--- Internal Coordinate Step in ANG or DEG, aJ/ANG or AJ/DEG ---
	 ---------------------------------------------------------------------------
	   Coordinate                Previous        Force       Change         New 
	   ----------                --------       ------       ------       ------
	    1 R(1,2)          =      1.084963    -0.000012     0.000003     1.084966
	    2 R(1,3)          =      1.082576     0.000008    -0.000002     1.082574
	    3 R(1,4)          =      1.362227    -0.000224     0.000029     1.362256
	    4 R(1,6)          =      2.347277     0.000197    -0.000345     2.346932
	    5 R(4,5)          =      1.085706     0.000009    -0.000004     1.085702
	    6 R(4,9)          =      1.390000     0.000267    -0.000082     1.389918
	    7 R(6,7)          =      1.082769     0.000038     0.000011     1.082780
	    8 R(6,8)          =      1.091384     0.000043     0.000008     1.091392
	    9 R(6,12)         =      1.420735     0.000329     0.000086     1.420821
	   10 R(9,10)         =      1.012899     0.000079    -0.000046     1.012853
	   11 R(9,11)         =      1.010597     0.000226    -0.000058     1.010539
	   12 R(12,13)        =      0.993681     0.000074     0.000018     0.993700
	   13 B(1,4,5)        =    120.364922     0.000000     0.003981   120.368903
	   14 B(1,4,9)        =    125.257033     0.000000    -0.000100   125.256933
	   15 B(1,6,7)        =     96.469965     0.000003     0.036296    96.506261
	   16 B(1,6,8)        =    105.444418     0.000002    -0.007425   105.436992
	   17 B(1,6,12)       =    106.283216    -0.000007     0.004784   106.287999
	   18 B(2,1,3)        =    116.673306    -0.000000    -0.002439   116.670867
	   19 B(2,1,4)        =    121.253404     0.000000    -0.007587   121.245817
	   20 B(2,1,6)        =     79.883961    -0.000003     0.013178    79.897140
	   21 B(3,1,4)        =    119.366748    -0.000000     0.001214   119.367962
	   22 B(3,1,6)        =     95.286380    -0.000003    -0.011134    95.275246
	   23 B(4,1,6)        =    110.474614     0.000006     0.023338   110.497952
	   24 B(4,9,10)       =    119.763948     0.000000     0.026979   119.790927
	   25 B(4,9,11)       =    120.352446     0.000000     0.031055   120.383501
	   26 B(5,4,9)        =    114.054750    -0.000001    -0.001540   114.053210
	   27 B(6,12,13)      =    108.447111    -0.000002    -0.011545   108.435565
	   28 B(7,6,8)        =    116.883183    -0.000001    -0.004869   116.878313
	   29 B(7,6,12)       =    110.708309    -0.000000    -0.011449   110.696860
	   30 B(8,6,12)       =    117.938459     0.000002    -0.006288   117.932171
	   31 B(10,9,11)      =    117.313632     0.000000     0.032303   117.345935
	   32 D(1,4,9,10)     =     10.110983    -0.000001    -0.169143     9.941840
	   33 D(1,4,9,11)     =    171.450557    -0.000000     0.158025   171.608582
	   34 D(1,6,12,13)    =    -76.438847     0.000000     0.111497   -76.327350
	   35 D(2,1,4,5)      =    171.320222     0.000000    -0.019190   171.301032
	   36 D(2,1,4,9)      =    -15.608932     0.000000     0.005762   -15.603170
	   37 D(2,1,6,7)      =     96.918010    -0.000001    -0.062261    96.855748
	   38 D(2,1,6,8)      =   -142.853390    -0.000000    -0.055674  -142.909064
	   39 D(2,1,6,12)     =    -16.902607    -0.000000    -0.064612   -16.967219
	   40 D(3,1,4,5)      =     10.579400    -0.000000     0.011584    10.590984
	   41 D(3,1,4,9)      =   -176.349754    -0.000000     0.036537  -176.313217
	   42 D(3,1,6,7)      =   -146.886773    -0.000000    -0.062831  -146.949604
	   43 D(3,1,6,8)      =    -26.658173    -0.000000    -0.056244   -26.714416
	   44 D(3,1,6,12)     =     99.292610    -0.000000    -0.065182    99.227429
	   45 D(4,1,6,7)      =    -22.813630    -0.000000    -0.058678   -22.872308
	   46 D(4,1,6,8)      =     97.414970    -0.000000    -0.052090    97.362880
	   47 D(4,1,6,12)     =   -136.634247    -0.000000    -0.061028  -136.695275
	   48 D(5,4,1,6)      =    -98.262090    -0.000000     0.008369   -98.253721
	   49 D(5,4,9,10)     =   -176.434518    -0.000001    -0.145239  -176.579757
	   50 D(5,4,9,11)     =    -15.094943    -0.000000     0.181928   -14.913015
	   51 D(6,1,4,9)      =     74.808756    -0.000000     0.033321    74.842077
	   52 D(7,6,12,13)    =    179.915050     0.000000     0.072456   179.987506
	   53 D(8,6,12,13)    =     41.526884    -0.000000     0.101705    41.628589
	 ---------------------------------------------------------------------------
	Successfully symmetrized geometry.

  ==> Convergence Check <==

  Measures of convergence in internal coordinates in au.
  Criteria marked as inactive (o), active & met (*), and active & unmet ( ).
  ---------------------------------------------------------------------------------------------
   Step     Total Energy     Delta E     MAX Force     RMS Force      MAX Disp      RMS Disp   
  ---------------------------------------------------------------------------------------------
    Convergence Criteria    1.00e-06 *    3.00e-04 *             o    1.20e-03 *             o
  ---------------------------------------------------------------------------------------------
     30    -247.61806099   -3.86e-07 *    9.68e-05 *    2.52e-05 o    3.18e-03      1.01e-03 o  ~
  ---------------------------------------------------------------------------------------------


  **** Optimization is complete! (in 30 steps) ****

  ==> Optimization Summary <==

  Measures of convergence in internal coordinates in au.
  --------------------------------------------------------------------------------------------------------------- ~
   Step         Total Energy             Delta E       MAX Force       RMS Force        MAX Disp        RMS Disp  ~
  --------------------------------------------------------------------------------------------------------------- ~
      1    -247.614610291264   -247.614610291264      0.02564572      0.00527993      0.09571274      0.03102569  ~
      2    -247.617191426523     -0.002581135258      0.00622323      0.00182281      0.20838902      0.06421801  ~
      3    -247.618848427257     -0.001657000734      0.00867957      0.00251872      0.16173880      0.06866076  ~
      4    -247.617891283756      0.000957143500      0.00787913      0.00217774      0.18794139      0.06871623  ~
      5    -247.616555851738      0.001335432018      0.01472338      0.00253089      0.22780200      0.05481690  ~
      6    -247.616461365217      0.000094486521      0.00841715      0.00153955      0.09245964      0.04415019  ~
      7    -247.617099946961     -0.000638581744      0.00673227      0.00157349      0.14159559      0.04218860  ~
      8    -247.617233946038     -0.000133999077      0.00625682      0.00103531      0.03608271      0.01363372  ~
      9    -247.617356644319     -0.000122698281      0.00219319      0.00041284      0.03013460      0.00722015  ~
     10    -247.617425484073     -0.000068839753      0.00098755      0.00029754      0.08864685      0.03721402  ~
     11    -247.617520250189     -0.000094766116      0.00162865      0.00040566      0.07574429      0.03354030  ~
     12    -247.617617495611     -0.000097245422      0.00138218      0.00038156      0.08809901      0.03778091  ~
     13    -247.617689134066     -0.000071638455      0.00147156      0.00046746      0.12513451      0.05221352  ~
     14    -247.617716708600     -0.000027574534      0.00367054      0.00096848      0.06067447      0.02462966  ~
     15    -247.617798471280     -0.000081762681      0.00162107      0.00039761      0.05875468      0.02299518  ~
     16    -247.617831829565     -0.000033358285      0.00179336      0.00040400      0.11696232      0.04533293  ~
     17    -247.617834905808     -0.000003076243      0.00377500      0.00086456      0.01288547      0.00462724  ~
     18    -247.617898185971     -0.000063280162      0.00132576      0.00027454      0.11326677      0.03393573  ~
     19    -247.618027340697     -0.000129154726      0.00407833      0.00080988      0.29774760      0.06527589  ~
     20    -247.616709823349      0.001317517348      0.02734106      0.00390745      0.20669407      0.04596191  ~
     21    -247.617688034036     -0.000978210688      0.01680519      0.00236071      0.05316801      0.01516921  ~
     22    -247.618030571105     -0.000342537069      0.00110383      0.00023141      0.01660208      0.00462846  ~
     23    -247.618041123257     -0.000010552152      0.00053842      0.00013137      0.03061255      0.01061011  ~
     24    -247.618050375332     -0.000009252075      0.00031444      0.00010564      0.00574152      0.00160776  ~
     25    -247.618053201246     -0.000002825913      0.00022696      0.00007217      0.01951198      0.00596842  ~
     26    -247.618056685366     -0.000003484120      0.00028217      0.00006857      0.00462508      0.00164478  ~
     27    -247.618057958108     -0.000001272742      0.00024456      0.00005688      0.00896063      0.00291668  ~
     28    -247.618059232106     -0.000001273998      0.00015707      0.00004512      0.02053315      0.00485461  ~
     29    -247.618060599902     -0.000001367796      0.00012491      0.00003361      0.00352258      0.00094153  ~
     30    -247.618060985784     -0.000000385882      0.00009677      0.00002522      0.00317525      0.00101221  ~
  --------------------------------------------------------------------------------------------------------------- ~

	Writing optimization data to binary file.
	Final energy is   -247.6180609857841
	Final (previous) structure:
	Cartesian Geometry (in Angstrom)
	    C     0.3562998253   1.0132430575  -0.1664036183
	    H    -0.0866356034   0.6865806391  -1.1014138871
	    H    -0.0026133590   1.9501669091   0.2401999466
	    C     1.5453514821   0.5089391886   0.2666059173
	    H     2.0446637952   0.9428993229   1.1274906013
	    C    -1.4280261993  -0.2746569380   0.6504216461
	    H    -0.8579478792  -1.1795099655   0.8196550705
	    H    -1.7876764639   0.2546333341   1.5345161984
	    N     2.1546090929  -0.6410925889  -0.2215870329
	    H     1.7922105203  -1.0866604844  -1.0559139338
	    H     3.0954803239  -0.8793989984   0.0599772529
	    O    -2.3276257282  -0.4434833000  -0.4361809726
	    H    -2.8326383604   0.4031859043  -0.5607455554
	Saving final (previous) structure.
	Removing binary optimization data file.
			--------------------------
			 OPTKING Finished Execution 
			--------------------------

    Final optimized geometry and variables:
    Molecular point group: c1
    Full point group: C1

    Geometry (in Angstrom), charge = 0, multiplicity = 2:

    C            0.356299825253     1.013243057490    -0.166403618312
    H           -0.086635603400     0.686580639148    -1.101413887066
    H           -0.002613359048     1.950166909144     0.240199946630
    C            1.545351482127     0.508939188583     0.266605917293
    H            2.044663795160     0.942899322873     1.127490601300
    C           -1.428026199267    -0.274656937984     0.650421646081
    H           -0.857947879160    -1.179509965545     0.819655070490
    H           -1.787676463914     0.254633334095     1.534516198356
    N            2.154609092859    -0.641092588855    -0.221587032878
    H            1.792210520259    -1.086660484431    -1.055913933760
    H            3.095480323942    -0.879398998425     0.059977252876
    O           -2.327625728243    -0.443483300014    -0.436180972570
    H           -2.832638360371     0.403185904264    -0.560745555406

	Removing binary optimization data file.
	Cleaning optimization helper files.

    Psi4 stopped on: Thursday, 21 March 2019 02:37PM
    Psi4 wall time for execution: 0:07:40.42

*** Psi4 exiting successfully. Buy a developer a beer!
