
Host: localhost.localdomain

Timers On : Mon Jan 21 10:05:28 2019
Timers Off: Mon Jan 21 10:51:20 2019

Wall Time:     2752.39 seconds

V: Grid                     :    187.917u      3.267s    106.474w    208 calls
JK: (A|mn)                  :  18540.133u      6.583s    278.397w    208 calls
JK: (A|Q)^-1/2              :   5572.233u    386.450s    124.344w    208 calls
JK: (Q|mn)                  :   1520.867u     36.417s     33.388w    208 calls
HF: Form H                  :    164.467u     13.167s      3.650w    208 calls
HF: Form S/X                :    167.283u     12.550s      2.721w    208 calls
HF: Guess                   :  12721.550u    912.600s    261.736w    208 calls
SAD Guess                   :  12671.633u    908.250s    260.918w    208 calls
HF: Form G                  : 100011.517u   1228.067s   1519.325w   2430 calls
RV: Form V                  :  85477.317u    315.167s   1287.523w   2430 calls
Properties                  :  39041.356p                         5469521 calls
Functional                  :    979.167p                         5469521 calls
V_xc                        :  10334.032p                         5469521 calls
JK: D                       :     24.900u      1.817s      0.415w   2430 calls
JK: USO2AO                  :     27.533u      2.383s      0.456w   2430 calls
JK: JK                      :  14362.200u    898.433s    229.018w   2430 calls
JK: J                       :   1748.117u     75.433s     27.361w   4860 calls
JK: J1                      :    834.967u     33.750s     13.077w   4860 calls
JK: J2                      :    767.167u     28.850s     11.958w   4860 calls
JK: K                       :   8681.200u    422.850s    136.612w   4860 calls
JK: K1                      :   6281.200u     48.583s     95.053w   4860 calls
JK: K2                      :   2348.933u    369.717s     40.813w   4860 calls
JK: AO2USO                  :      4.367u      0.350s      0.066w   2430 calls
HF: Form F                  :     36.200u      3.200s      0.586w   2430 calls
HF: DIIS                    :    940.700u     85.050s     15.482w   2430 calls
DIISManager::add_entry      :    373.917u     33.333s      6.205w   2222 calls
DIISManager::extrapolate    :    363.167u     34.533s      5.965w   2014 calls
bMatrix setup               :    172.467u     16.667s      2.846w   2014 calls
bMatrix pseudoinverse       :     12.833u      1.717s      0.220w   2014 calls
New vector                  :    162.883u     14.733s      2.675w   2014 calls
HF: Form C                  :   1808.300u    118.750s     28.919w   2430 calls
HF: Form D                  :     13.483u      0.983s      0.213w   2430 calls

-----------------------------------------------------------
V: Grid                     :    187.917u      3.267s    106.474w    208 calls
JK: (A|mn)                  :  18540.133u      6.583s    278.397w    208 calls
JK: (A|Q)^-1/2              :   5572.233u    386.450s    124.344w    208 calls
JK: (Q|mn)                  :   1520.867u     36.417s     33.388w    208 calls
HF: Form H                  :    164.467u     13.167s      3.650w    208 calls
HF: Form S/X                :    167.283u     12.550s      2.721w    208 calls
HF: Guess                   :  12721.550u    912.600s    261.736w    208 calls
| SAD Guess                 :  12671.633u    908.250s    260.918w    208 calls
HF: Form G                  : 100011.517u   1228.067s   1519.325w   2430 calls
| RV: Form V                :  85477.317u    315.167s   1287.523w   2430 calls
| | Properties              :  39041.356p                         5469521 calls
| | Functional              :    979.167p                         5469521 calls
| | V_xc                    :  10334.032p                         5469521 calls
| JK: D                     :     24.900u      1.817s      0.415w   2430 calls
| JK: USO2AO                :     27.533u      2.383s      0.456w   2430 calls
| JK: JK                    :  14362.200u    898.433s    229.018w   2430 calls
| | JK: J                   :   1748.117u     75.433s     27.361w   4860 calls
| | | JK: J1                :    834.967u     33.750s     13.077w   4860 calls
| | | JK: J2                :    767.167u     28.850s     11.958w   4860 calls
| | JK: K                   :   8681.200u    422.850s    136.612w   4860 calls
| | | JK: K1                :   6281.200u     48.583s     95.053w   4860 calls
| | | JK: K2                :   2348.933u    369.717s     40.813w   4860 calls
| JK: AO2USO                :      4.367u      0.350s      0.066w   2430 calls
HF: Form F                  :     36.200u      3.200s      0.586w   2430 calls
HF: DIIS                    :    940.700u     85.050s     15.482w   2430 calls
| DIISManager::add_entry    :    373.917u     33.333s      6.205w   2222 calls
| DIISManager::extrapolate  :    363.167u     34.533s      5.965w   2014 calls
| | bMatrix setup           :    172.467u     16.667s      2.846w   2014 calls
| | bMatrix pseudoinverse   :     12.833u      1.717s      0.220w   2014 calls
| | New vector              :    162.883u     14.733s      2.675w   2014 calls
HF: Form C                  :   1808.300u    118.750s     28.919w   2430 calls
HF: Form D                  :     13.483u      0.983s      0.213w   2430 calls

***********************************************************

Host: localhost.localdomain

Timers On : Mon Jan 21 10:53:39 2019
Timers Off: Mon Jan 21 10:53:40 2019

Wall Time:        1.38 seconds


-----------------------------------------------------------

***********************************************************

Host: localhost.localdomain

Timers On : Mon Jan 21 10:54:59 2019
Timers Off: Mon Jan 21 10:55:00 2019

Wall Time:        1.40 seconds


-----------------------------------------------------------

***********************************************************

Host: localhost.localdomain

Timers On : Mon Jan 21 10:56:28 2019
Timers Off: Mon Jan 21 10:56:30 2019

Wall Time:        1.45 seconds


-----------------------------------------------------------

***********************************************************

Host: localhost.localdomain

Timers On : Mon Jan 21 10:57:34 2019
Timers Off: Mon Jan 21 10:57:35 2019

Wall Time:        1.50 seconds


-----------------------------------------------------------

***********************************************************

Host: localhost.localdomain

Timers On : Mon Jan 21 10:58:30 2019
Timers Off: Mon Jan 21 10:58:31 2019

Wall Time:        1.35 seconds


-----------------------------------------------------------

***********************************************************

Host: localhost.localdomain

Timers On : Mon Jan 21 11:00:13 2019
Timers Off: Mon Jan 21 11:00:14 2019

Wall Time:        1.52 seconds


-----------------------------------------------------------

***********************************************************
