
    -----------------------------------------------------------------------
          Psi4: An Open-Source Ab Initio Electronic Structure Package
                               Psi4 1.2.1 release

                         Git: Rev {HEAD} 406f4de 


    R. M. Parrish, L. A. Burns, D. G. A. Smith, A. C. Simmonett,
    A. E. DePrince III, E. G. Hohenstein, U. Bozkaya, A. Yu. Sokolov,
    R. Di Remigio, R. M. Richard, J. F. Gonthier, A. M. James,
    H. R. McAlexander, A. Kumar, M. Saitow, X. Wang, B. P. Pritchard,
    P. Verma, H. F. Schaefer III, K. Patkowski, R. A. King, E. F. Valeev,
    F. A. Evangelista, J. M. Turney, T. D. Crawford, and C. D. Sherrill,
    J. Chem. Theory Comput. 13(7) pp 3185--3197 (2017).
    (doi: 10.1021/acs.jctc.7b00174)


                         Additional Contributions by
    P. Kraus, H. Kruse, M. H. Lechner, M. C. Schieber, and R. A. Shaw

    -----------------------------------------------------------------------


    Psi4 started on: Tuesday, 19 March 2019 01:05PM

    Process ID: 9146
    Host:       localhost.localdomain
    PSIDATADIR: /root/psi4conda/share/psi4
    Memory:     500.0 MiB
    Threads:    1
    
  ==> Input File <==

--------------------------------------------------------------------------
molecule{
0 1
 C   -0.097234089459   -0.567034890671   -0.837782074140
 O   -1.114597217163   -0.644593626375   -1.456772892565
 F    1.044429986275   -0.029006751083    1.197659493656
 F   -1.112151503360    0.067506236223    1.242014407803
 H    1.293875393903    3.035391020007   -1.959216596611
 C    1.296307705263    1.987104820964   -1.653905304988
 H    1.343710569114    1.351938630559   -2.545227551154
 H    2.174242967609    1.803465156282   -1.035958749509
 O    0.166773779158    1.680421731763   -0.853287646439
 H   -0.641446597620    1.839049389277   -1.350712433180
 C   -0.077983984077   -0.555576292715    0.700581489695
 F   -0.111897566139   -1.847284868072    1.069969073092
 H    0.909621627476   -0.665343357872   -1.280065559244
}

set{
   basis 6-311++G(d,p)
   freeze_core True
}


set_num_threads(16)
optimize('m06-2x')
--------------------------------------------------------------------------
  Threads set to 16 by Python driver.
gradient() will perform analytic gradient computation.

*** tstart() called on localhost.localdomain
*** at Tue Mar 19 13:05:26 2019

   => Loading Basis Set <=

    Name: 6-311++G(D,P)
    Role: ORBITAL
    Keyword: BASIS
    atoms 1, 6, 11       entry C          line   119 file /root/psi4conda/share/psi4/basis/6-311ppg_d_p_.gbs 
    atoms 2, 9           entry O          line   161 file /root/psi4conda/share/psi4/basis/6-311ppg_d_p_.gbs 
    atoms 3-4, 12        entry F          line   182 file /root/psi4conda/share/psi4/basis/6-311ppg_d_p_.gbs 
    atoms 5, 7-8, 10, 13 entry H          line    42 file /root/psi4conda/share/psi4/basis/6-311ppg_d_p_.gbs 


         ---------------------------------------------------------
                                   SCF
            by Justin Turney, Rob Parrish, Andy Simmonett
                             and Daniel Smith
                              RKS Reference
                       16 Threads,    500 MiB Core
         ---------------------------------------------------------

  ==> Geometry <==

    Molecular point group: c1
    Full point group: C1

    Geometry (in Angstrom), charge = 0, multiplicity = 1:

       Center              X                  Y                   Z               Mass       
    ------------   -----------------  -----------------  -----------------  -----------------
         C           -0.097234089459    -0.567034890671    -0.837782074140    12.000000000000
         O           -1.114597217163    -0.644593626375    -1.456772892565    15.994914619560
         F            1.044429986275    -0.029006751083     1.197659493656    18.998403224000
         F           -1.112151503360     0.067506236223     1.242014407803    18.998403224000
         H            1.293875393903     3.035391020007    -1.959216596611     1.007825032070
         C            1.296307705263     1.987104820964    -1.653905304988    12.000000000000
         H            1.343710569114     1.351938630559    -2.545227551154     1.007825032070
         H            2.174242967609     1.803465156282    -1.035958749509     1.007825032070
         O            0.166773779158     1.680421731763    -0.853287646439    15.994914619560
         H           -0.641446597620     1.839049389277    -1.350712433180     1.007825032070
         C           -0.077983984077    -0.555576292715     0.700581489695    12.000000000000
         F           -0.111897566139    -1.847284868072     1.069969073092    18.998403224000
         H            0.909621627476    -0.665343357872    -1.280065559244     1.007825032070

  Running in c1 symmetry.

  Rotational constants: A =      0.09738  B =      0.04752  C =      0.04078 [cm^-1]
  Rotational constants: A =   2919.51207  B =   1424.66182  C =   1222.58654 [MHz]
  Nuclear repulsion =  431.072783788351046

  Charge       = 0
  Multiplicity = 1
  Electrons    = 66
  Nalpha       = 33
  Nbeta        = 33

  ==> Algorithm <==

  SCF Algorithm Type is DF.
  DIIS enabled.
  MOM disabled.
  Fractional occupation disabled.
  Guess Type is SAD.
  Energy threshold   = 1.00e-08
  Density threshold  = 1.00e-08
  Integral threshold = 0.00e+00

  ==> Primary Basis <==

  Basis Set: 6-311++G(D,P)
    Blend: 6-311++G(D,P)
    Number of shells: 105
    Number of basis function: 211
    Number of Cartesian functions: 219
    Spherical Harmonics?: true
    Max angular momentum: 2

  ==> DFT Potential <==

   => Composite Functional: M06-2X <= 

    Hybrid M06-2X Meta-GGA XC Functional

    Y. Zhao and D. G. Truhlar,  Theor. Chem. Acc., 120, 215, 2008


    Deriv               =              1
    GGA                 =           TRUE
    Meta                =           TRUE

    Exchange Hybrid     =           TRUE
    MP2 Hybrid          =          FALSE

   => Exchange Functionals <=

    1.0000   XC_HYB_MGGA_X_M06_2X

   => Exact (HF) Exchange <=

    0.5400               HF 

   => Correlation Functionals <=

    1.0000   XC_MGGA_C_M06_2X

   => Molecular Quadrature <=

    Radial Scheme       =       TREUTLER
    Pruning Scheme      =           FLAT
    Nuclear Scheme      =       TREUTLER

    BS radius alpha     =              1
    Pruning alpha       =              1
    Radial Points       =             75
    Spherical Points    =            302
    Total Points        =         294450
    Total Blocks        =           2275
    Max Points          =            256
    Max Functions       =            197

   => Loading Basis Set <=

    Name: (6-311++G(D,P) AUX)
    Role: JKFIT
    Keyword: DF_BASIS_SCF
    atoms 1, 6, 11       entry C          line   162 file /root/psi4conda/share/psi4/basis/aug-cc-pvtz-jkfit.gbs 
    atoms 2, 9           entry O          line   286 file /root/psi4conda/share/psi4/basis/aug-cc-pvtz-jkfit.gbs 
    atoms 3-4, 12        entry F          line   348 file /root/psi4conda/share/psi4/basis/aug-cc-pvtz-jkfit.gbs 
    atoms 5, 7-8, 10, 13 entry H          line    70 file /root/psi4conda/share/psi4/basis/aug-cc-pvtz-jkfit.gbs 

  ==> Pre-Iterations <==

   -------------------------------------------------------
    Irrep   Nso     Nmo     Nalpha   Nbeta   Ndocc  Nsocc
   -------------------------------------------------------
     A        211     211       0       0       0       0
   -------------------------------------------------------
    Total     211     211      33      33      33       0
   -------------------------------------------------------

  ==> Integral Setup <==

  DFHelper Memory: AOs need 0.424 [GiB]; user supplied 0.366 [GiB]. Turning off in-core AOs.

  ==> MemDFJK: Density-Fitted J/K Matrices <==

    J tasked:                   Yes
    K tasked:                   Yes
    wK tasked:                   No
    OpenMP threads:              16
    Memory (MB):                375
    Algorithm:                 Disk
    Schwarz Cutoff:           1E-12
    Mask sparsity (%):       7.6638
    Fitting Condition:        1E-12

   => Auxiliary Basis Set <=

  Basis Set: (6-311++G(D,P) AUX)
    Blend: AUG-CC-PVTZ-JKFIT
    Number of shells: 310
    Number of basis function: 1062
    Number of Cartesian functions: 1323
    Spherical Harmonics?: true
    Max angular momentum: 4

  Minimum eigenvalue in the overlap matrix is 7.1687395566E-05.
  Using Symmetric Orthogonalization.

  SCF Guess: Superposition of Atomic Densities via on-the-fly atomic UHF.

  ==> Iterations <==

                           Total Energy        Delta E     RMS |[F,P]|

   @DF-RKS iter   0:  -568.85271488928026   -5.68853e+02   8.16100e-02 
   @DF-RKS iter   1:  -567.04382047048352    1.80889e+00   1.23169e-02 
   @DF-RKS iter   2:  -566.98257469411897    6.12458e-02   1.59598e-02 DIIS
   @DF-RKS iter   3:  -567.24114306201500   -2.58568e-01   1.73870e-03 DIIS
   @DF-RKS iter   4:  -567.24330493676598   -2.16187e-03   1.31519e-03 DIIS
   @DF-RKS iter   5:  -567.24520176379019   -1.89683e-03   2.12034e-04 DIIS
   @DF-RKS iter   6:  -567.24527001809679   -6.82543e-05   8.57759e-05 DIIS
   @DF-RKS iter   7:  -567.24528069138978   -1.06733e-05   2.58382e-05 DIIS
   @DF-RKS iter   8:  -567.24528227504504   -1.58366e-06   1.12376e-05 DIIS
   @DF-RKS iter   9:  -567.24528265710592   -3.82061e-07   3.32352e-06 DIIS
   @DF-RKS iter  10:  -567.24528275122793   -9.41220e-08   1.20691e-06 DIIS
   @DF-RKS iter  11:  -567.24528276200476   -1.07768e-08   7.09861e-07 DIIS
   @DF-RKS iter  12:  -567.24528276313038   -1.12561e-09   2.33731e-07 DIIS
   @DF-RKS iter  13:  -567.24528276324304   -1.12664e-10   6.40107e-08 DIIS
   @DF-RKS iter  14:  -567.24528276325225   -9.20863e-12   2.17391e-08 DIIS
   @DF-RKS iter  15:  -567.24528276325361   -1.36424e-12   4.56161e-09 DIIS

  ==> Post-Iterations <==

    Orbital Energies [Eh]
    ---------------------

    Doubly Occupied:                                                      

       1A    -25.287196     2A    -25.286517     3A    -25.284878  
       4A    -19.659967     5A    -19.653892     6A    -10.805973  
       7A    -10.671858     8A    -10.606066     9A     -1.481135  
      10A     -1.388502    11A     -1.385097    12A     -1.215709  
      13A     -1.181571    14A     -0.864824    15A     -0.809100  
      16A     -0.762004    17A     -0.707224    18A     -0.704439  
      19A     -0.655552    20A     -0.621911    21A     -0.586303  
      22A     -0.584467    23A     -0.568127    24A     -0.560585  
      25A     -0.545230    26A     -0.537079    27A     -0.529647  
      28A     -0.521685    29A     -0.518096    30A     -0.486647  
      31A     -0.442225    32A     -0.384165    33A     -0.364333  

    Virtual:                                                              

      34A     -0.011623    35A     -0.007538    36A      0.006911  
      37A      0.018182    38A      0.025063    39A      0.044819  
      40A      0.053297    41A      0.061140    42A      0.065807  
      43A      0.070284    44A      0.092379    45A      0.100581  
      46A      0.103491    47A      0.111811    48A      0.119900  
      49A      0.130927    50A      0.136955    51A      0.152996  
      52A      0.180090    53A      0.184378    54A      0.195444  
      55A      0.201269    56A      0.227927    57A      0.229798  
      58A      0.237494    59A      0.245779    60A      0.257246  
      61A      0.264899    62A      0.275541    63A      0.283520  
      64A      0.290086    65A      0.303962    66A      0.307241  
      67A      0.321188    68A      0.327499    69A      0.331123  
      70A      0.342629    71A      0.351134    72A      0.365161  
      73A      0.372567    74A      0.381369    75A      0.390858  
      76A      0.399103    77A      0.406461    78A      0.422163  
      79A      0.424736    80A      0.454104    81A      0.463648  
      82A      0.483650    83A      0.503723    84A      0.549205  
      85A      0.578964    86A      0.598414    87A      0.612323  
      88A      0.644621    89A      0.654826    90A      0.681681  
      91A      0.684812    92A      0.689841    93A      0.718275  
      94A      0.730803    95A      0.756245    96A      0.799257  
      97A      0.931442    98A      0.959883    99A      1.013045  
     100A      1.029989   101A      1.078794   102A      1.106559  
     103A      1.143505   104A      1.159496   105A      1.201101  
     106A      1.223561   107A      1.249584   108A      1.286745  
     109A      1.337013   110A      1.355085   111A      1.378458  
     112A      1.391769   113A      1.441124   114A      1.451892  
     115A      1.462391   116A      1.475742   117A      1.485863  
     118A      1.495218   119A      1.508586   120A      1.527432  
     121A      1.535461   122A      1.549810   123A      1.572327  
     124A      1.589000   125A      1.602743   126A      1.641399  
     127A      1.680167   128A      1.695145   129A      1.728997  
     130A      1.735109   131A      1.752262   132A      1.799742  
     133A      1.826174   134A      1.875263   135A      1.922554  
     136A      1.977137   137A      2.006718   138A      2.013182  
     139A      2.033692   140A      2.073896   141A      2.087013  
     142A      2.149689   143A      2.226024   144A      2.277069  
     145A      2.366987   146A      2.441775   147A      2.479139  
     148A      2.499527   149A      2.533487   150A      2.541387  
     151A      2.604427   152A      2.669157   153A      2.743442  
     154A      2.851236   155A      2.894851   156A      2.925725  
     157A      2.938449   158A      3.010811   159A      3.024992  
     160A      3.041328   161A      3.069835   162A      3.180289  
     163A      3.251133   164A      3.316042   165A      3.413352  
     166A      3.496163   167A      3.569697   168A      3.654917  
     169A      3.781250   170A      3.800037   171A      3.821295  
     172A      3.835861   173A      3.839605   174A      3.855714  
     175A      3.863463   176A      3.868693   177A      3.889833  
     178A      3.961857   179A      3.980105   180A      4.032590  
     181A      4.056884   182A      4.081664   183A      4.220961  
     184A      4.292695   185A      4.302439   186A      4.677700  
     187A      4.991210   188A      5.003934   189A      5.134776  
     190A      5.236395   191A      5.248841   192A      5.538804  
     193A      5.723415   194A      5.792222   195A      6.431869  
     196A      6.451776   197A      6.488158   198A      6.500350  
     199A      6.509362   200A      6.535527   201A      6.590384  
     202A      6.888370   203A      6.908959   204A     23.595073  
     205A     23.933288   206A     23.980275   207A     49.991106  
     208A     50.081793   209A     66.881437   210A     66.888875  
     211A     66.942887  

    Final Occupation by Irrep:
              A 
    DOCC [    33 ]

  Energy converged.

  @DF-RKS Final Energy:  -567.24528276325361

   => Energetics <=

    Nuclear Repulsion Energy =            431.0727837883510460
    One-Electron Energy =               -1638.8534823757831873
    Two-Electron Energy =                 672.5529777798784608
    DFT Exchange-Correlation Energy =     -32.0175619556998470
    Empirical Dispersion Energy =           0.0000000000000000
    VV10 Nonlocal Energy =                  0.0000000000000000
    Total Energy =                       -567.2452827632536128



Properties will be evaluated at   0.000000,   0.000000,   0.000000 [a0]

Properties computed using the SCF density matrix

  Nuclear Dipole Moment: [e a0]
     X:     4.9272      Y:     8.6153      Z:   -10.9822

  Electronic Dipole Moment: [e a0]
     X:    -4.0592      Y:    -7.8471      Z:    10.0394

  Dipole Moment: [e a0]
     X:     0.8680      Y:     0.7682      Z:    -0.9428     Total:     1.4941

  Dipole Moment: [D]
     X:     2.2063      Y:     1.9526      Z:    -2.3963     Total:     3.7977


*** tstop() called on localhost.localdomain at Tue Mar 19 13:05:41 2019
Module time:
	user time   =     219.70 seconds =       3.66 minutes
	system time =       8.43 seconds =       0.14 minutes
	total time  =         15 seconds =       0.25 minutes
Total time:
	user time   =     219.70 seconds =       3.66 minutes
	system time =       8.43 seconds =       0.14 minutes
	total time  =         15 seconds =       0.25 minutes

*** tstart() called on localhost.localdomain
*** at Tue Mar 19 13:05:41 2019


         ------------------------------------------------------------
                                   SCF GRAD                          
                          Rob Parrish, Justin Turney,                
                       Andy Simmonett, and Alex Sokolov              
         ------------------------------------------------------------

  ==> Geometry <==

    Molecular point group: c1
    Full point group: C1

    Geometry (in Angstrom), charge = 0, multiplicity = 1:

       Center              X                  Y                   Z               Mass       
    ------------   -----------------  -----------------  -----------------  -----------------
         C           -0.097234089459    -0.567034890671    -0.837782074140    12.000000000000
         O           -1.114597217163    -0.644593626375    -1.456772892565    15.994914619560
         F            1.044429986275    -0.029006751083     1.197659493656    18.998403224000
         F           -1.112151503360     0.067506236223     1.242014407803    18.998403224000
         H            1.293875393903     3.035391020007    -1.959216596611     1.007825032070
         C            1.296307705263     1.987104820964    -1.653905304988    12.000000000000
         H            1.343710569114     1.351938630559    -2.545227551154     1.007825032070
         H            2.174242967609     1.803465156282    -1.035958749509     1.007825032070
         O            0.166773779158     1.680421731763    -0.853287646439    15.994914619560
         H           -0.641446597620     1.839049389277    -1.350712433180     1.007825032070
         C           -0.077983984077    -0.555576292715     0.700581489695    12.000000000000
         F           -0.111897566139    -1.847284868072     1.069969073092    18.998403224000
         H            0.909621627476    -0.665343357872    -1.280065559244     1.007825032070

  Nuclear repulsion =  431.072783788351046

  ==> Basis Set <==

  Basis Set: 6-311++G(D,P)
    Blend: 6-311++G(D,P)
    Number of shells: 105
    Number of basis function: 211
    Number of Cartesian functions: 219
    Spherical Harmonics?: true
    Max angular momentum: 2

  ==> DFJKGrad: Density-Fitted SCF Gradients <==

    Gradient:                    1
    J tasked:                  Yes
    K tasked:                  Yes
    wK tasked:                  No
    OpenMP threads:             16
    Integrals threads:          16
    Memory (MB):               375
    Schwarz Cutoff:          0E+00
    Fitting Condition:       1E-12

   => Auxiliary Basis Set <=

  Basis Set: (6-311++G(D,P) AUX)
    Blend: AUG-CC-PVTZ-JKFIT
    Number of shells: 310
    Number of basis function: 1062
    Number of Cartesian functions: 1323
    Spherical Harmonics?: true
    Max angular momentum: 4

  ==> DFT Potential <==

   => Composite Functional: M06-2X <= 

    Hybrid M06-2X Meta-GGA XC Functional

    Y. Zhao and D. G. Truhlar,  Theor. Chem. Acc., 120, 215, 2008


    Deriv               =              1
    GGA                 =           TRUE
    Meta                =           TRUE

    Exchange Hybrid     =           TRUE
    MP2 Hybrid          =          FALSE

   => Exchange Functionals <=

    1.0000   XC_HYB_MGGA_X_M06_2X

   => Exact (HF) Exchange <=

    0.5400               HF 

   => Correlation Functionals <=

    1.0000   XC_MGGA_C_M06_2X

   => Molecular Quadrature <=

    Radial Scheme       =       TREUTLER
    Pruning Scheme      =           FLAT
    Nuclear Scheme      =       TREUTLER

    BS radius alpha     =              1
    Pruning alpha       =              1
    Radial Points       =             75
    Spherical Points    =            302
    Total Points        =         294450
    Total Blocks        =           2275
    Max Points          =            256
    Max Functions       =            197


  -Total Gradient:
     Atom            X                  Y                   Z
    ------   -----------------  -----------------  -----------------
       1        0.000726070786     0.003194188894     0.000203873885
       2        0.001131890384     0.003551291420    -0.000343700421
       3        0.000215538738     0.000484600786     0.003666296197
       4        0.000588963156     0.000800756973     0.002173196203
       5       -0.000321671008    -0.000185403587     0.000080066489
       6       -0.001199919778    -0.002262891881     0.000590737225
       7        0.000145260316    -0.000167621293     0.000046962824
       8       -0.000135086110     0.000000052899     0.000163831815
       9       -0.002488280441    -0.007096595868    -0.001794439494
      10        0.000305213754    -0.000767962433     0.000057675503
      11        0.000384685728     0.001455785000     0.000230953874
      12        0.000348110523     0.000931793214    -0.004672826283
      13        0.000073727797     0.000102541330     0.000078086282


*** tstop() called on localhost.localdomain at Tue Mar 19 13:05:45 2019
Module time:
	user time   =      61.68 seconds =       1.03 minutes
	system time =       1.88 seconds =       0.03 minutes
	total time  =          4 seconds =       0.07 minutes
Total time:
	user time   =     281.40 seconds =       4.69 minutes
	system time =      10.31 seconds =       0.17 minutes
	total time  =         19 seconds =       0.32 minutes

			-----------------------------------------
			 OPTKING 2.0: for geometry optimizations 
			  - R.A. King,  Bethel University        
			-----------------------------------------

	Internal coordinates to be generated automatically.
	Detected frag 1 with atoms:  1 2 3 4 11 12 13
	Detected frag 2 with atoms:  5 6 7 8 9 10
	Unifying fragments since fragment_mode == SINGLE
	Connecting fragments 1 and 2
	---Fragment 1 Bond Connectivity---
	 1 : 2 9 11 13
	 2 : 1
	 3 : 11
	 4 : 11
	 5 : 6
	 6 : 5 7 8 9
	 7 : 6
	 8 : 6
	 9 : 1 6 10
	 10 : 9
	 11 : 1 3 4 12
	 12 : 11
	 13 : 1

	---Fragment 1 Geometry and Gradient---
	 C          -0.1837457999       -1.0715406512       -1.5831786792
	 O          -2.1062834889       -1.2181054209       -2.7529018048
	 F           1.9736866390       -0.0548148156        2.2632484435
	 F          -2.1016617596        0.1275682987        2.3470670838
	 H           2.4450701446        5.7360577340       -3.7023828026
	 C           2.4496665469        3.7550839090       -3.1254280762
	 H           2.5392449775        2.5547937602       -4.8097830176
	 H           4.1087237551        3.4080552356       -1.9576783215
	 O           0.3151567688        3.1755368608       -1.6124799643
	 H          -1.2121583984        3.4752996906       -2.5524765830
	 C          -0.1473683727       -1.0498870392        1.3239071493
	 F          -0.2114557549       -3.4908624901        2.0219485188
	 H           1.7189357605       -1.2573167307       -2.4189733391
	             0.0007260708        0.0031941889        0.0002038739
	             0.0011318904        0.0035512914       -0.0003437004
	             0.0002155387        0.0004846008        0.0036662962
	             0.0005889632        0.0008007570        0.0021731962
	            -0.0003216710       -0.0001854036        0.0000800665
	            -0.0011999198       -0.0022628919        0.0005907372
	             0.0001452603       -0.0001676213        0.0000469628
	            -0.0001350861        0.0000000529        0.0001638318
	            -0.0024882804       -0.0070965959       -0.0017944395
	             0.0003052138       -0.0007679624        0.0000576755
	             0.0003846857        0.0014557850        0.0002309539
	             0.0003481105        0.0009317932       -0.0046728263
	             0.0000737278        0.0001025413        0.0000780863

	Previous optimization step data not found.  Starting new optimization.

	---Fragment 1 Intrafragment Coordinates---
	 - Coordinate -           - BOHR/RAD -       - ANG/DEG -
	 R(1,2)           =         2.255191	       1.193395
	 R(1,9)           =         4.276380	       2.262963
	 R(1,11)          =         2.907394	       1.538527
	 R(1,13)          =         2.086447	       1.104100
	 R(3,11)          =         2.524164	       1.335730
	 R(4,11)          =         2.500504	       1.323210
	 R(5,6)           =         2.063287	       1.091845
	 R(6,7)           =         2.070211	       1.095508
	 R(6,8)           =         2.058286	       1.089198
	 R(6,9)           =         2.679742	       1.418059
	 R(9,10)          =         1.818280	       0.962192
	 R(11,12)         =         2.539632	       1.343915
	 B(1,9,6)         =         1.887656	     108.154704
	 B(1,9,10)        =         1.640129	      93.972486
	 B(1,11,3)        =         1.966600	     112.677889
	 B(1,11,4)        =         1.985443	     113.757485
	 B(1,11,12)       =         1.841444	     105.506990
	 B(2,1,9)         =         1.731940	      99.232826
	 B(2,1,11)        =         2.129133	     121.990313
	 B(2,1,13)        =         2.169836	     124.322419
	 B(3,11,4)        =         1.895301	     108.592763
	 B(3,11,12)       =         1.873208	     107.326911
	 B(4,11,12)       =         1.896953	     108.687411
	 B(5,6,7)         =         1.906302	     109.223075
	 B(5,6,8)         =         1.898970	     108.802993
	 B(5,6,9)         =         1.943078	     111.330194
	 B(6,9,10)        =         1.919355	     109.970916
	 B(7,6,8)         =         1.906005	     109.206060
	 B(7,6,9)         =         1.948118	     111.618927
	 B(8,6,9)         =         1.860076	     106.574480
	 B(9,1,11)        =         1.568791	      89.885105
	 B(9,1,13)        =         1.550090	      88.813619
	 B(11,1,13)       =         1.971203	     112.941640
	 D(1,9,6,5)       =         2.827578	     162.008273
	 D(1,9,6,7)       =         0.692321	      39.667067
	 D(1,9,6,8)       =        -1.387301	     -79.486503
	 D(2,1,9,6)       =        -1.953525	    -111.928732
	 D(2,1,9,10)      =         0.010392	       0.595445
	 D(2,1,11,3)      =        -2.775608	    -159.030635
	 D(2,1,11,4)      =        -0.608644	     -34.872729
	 D(2,1,11,12)     =         1.468998	      84.167378
	 D(3,11,1,9)      =        -1.015765	     -58.199031
	 D(3,11,1,13)     =         0.531698	      30.464025
	 D(4,11,1,9)      =         1.151200	      65.958875
	 D(4,11,1,13)     =         2.698662	     154.621931
	 D(5,6,9,10)      =         1.058758	      60.662376
	 D(6,9,1,11)      =         2.192693	     125.632051
	 D(6,9,1,13)      =         0.221353	      12.682578
	 D(7,6,9,10)      =        -1.076499	     -61.678829
	 D(8,6,9,10)      =         3.127065	     179.167600
	 D(9,1,11,12)     =        -3.054344	    -175.001018
	 D(10,9,1,11)     =        -2.126575	    -121.843772
	 D(10,9,1,13)     =         2.185270	     125.206756
	 D(12,11,1,13)    =        -1.506882	     -86.337962

	Current energy   :      -567.2452827633

	Generating empirical Hessian (Schlegel '84) for each fragment.
	Taking RFO optimization step.
	Going to follow RFO solution 1.
	Using RFO vector 1.
	Norm of target step-size    0.22429
	Projected energy change by RFO approximation:        -0.0024690610

	Back-transformation to cartesian coordinates...
	Successfully converged to displaced geometry.

	--- Internal Coordinate Step in ANG or DEG, aJ/ANG or AJ/DEG ---
	 ---------------------------------------------------------------------------
	   Coordinate                Previous        Force       Change         New 
	   ----------                --------       ------       ------       ------
	    1 R(1,2)          =      1.193395     0.008338     0.000493     1.193889
	    2 R(1,9)          =      2.262963     0.089233     0.101063     2.364026
	    3 R(1,11)         =      1.538527    -0.010596    -0.002348     1.536179
	    4 R(1,13)         =      1.104100    -0.000490    -0.000094     1.104007
	    5 R(3,11)         =      1.335730    -0.014262    -0.001566     1.334164
	    6 R(4,11)         =      1.323210    -0.006403    -0.000669     1.322541
	    7 R(5,6)          =      1.091845     0.001586     0.000292     1.092136
	    8 R(6,7)          =      1.095508    -0.000773    -0.000144     1.095364
	    9 R(6,8)          =      1.089198     0.000148     0.000027     1.089225
	   10 R(6,9)          =      1.418059     0.017558     0.002617     1.420676
	   11 R(9,10)         =      0.962192     0.003372     0.000391     0.962584
	   12 R(11,12)        =      1.343915     0.018088     0.002050     1.345965
	   13 B(1,9,6)        =    108.154704     0.000370     1.270572   109.425276
	   14 B(1,9,10)       =     93.972486    -0.000037     0.523975    94.496461
	   15 B(1,11,3)       =    112.677889    -0.000459    -1.515550   111.162338
	   16 B(1,11,4)       =    113.757485    -0.000272    -0.946166   112.811320
	   17 B(1,11,12)      =    105.506990     0.000687     2.385697   107.892687
	   18 B(2,1,9)        =     99.232826     0.000387     1.759242   100.992068
	   19 B(2,1,11)       =    121.990313    -0.000049    -0.352343   121.637970
	   20 B(2,1,13)       =    124.322419     0.000005     0.039615   124.362035
	   21 B(3,11,4)       =    108.592763     0.000323     0.338934   108.931697
	   22 B(3,11,12)      =    107.326911    -0.000082     0.091149   107.418061
	   23 B(4,11,12)      =    108.687411    -0.000182    -0.243774   108.443637
	   24 B(5,6,7)        =    109.223075    -0.000010    -0.060679   109.162396
	   25 B(5,6,8)        =    108.802993    -0.000018    -0.044686   108.758307
	   26 B(5,6,9)        =    111.330194     0.000026     0.103042   111.433235
	   27 B(6,9,10)       =    109.970916    -0.000055    -0.018138   109.952778
	   28 B(7,6,8)        =    109.206060    -0.000001    -0.003050   109.203010
	   29 B(7,6,9)        =    111.618927    -0.000015    -0.040985   111.577943
	   30 B(8,6,9)        =    106.574480     0.000017     0.046936   106.621416
	   31 B(9,1,11)       =     89.885105    -0.000470    -1.199898    88.685207
	   32 B(9,1,13)       =     88.813619     0.000081     0.018515    88.832134
	   33 B(11,1,13)      =    112.941640     0.000037     0.180803   113.122443
	   34 D(1,9,6,5)      =    162.008273     0.000013     1.849752   163.858025
	   35 D(1,9,6,7)      =     39.667067     0.000014     1.883533    41.550600
	   36 D(1,9,6,8)      =    -79.486503     0.000014     1.881192   -77.605311
	   37 D(2,1,9,6)      =   -111.928732    -0.000010     0.740685  -111.188048
	   38 D(2,1,9,10)     =      0.595445    -0.000009     1.214108     1.809553
	   39 D(2,1,11,3)     =   -159.030635     0.000004     0.571700  -158.458935
	   40 D(2,1,11,4)     =    -34.872729    -0.000032    -0.886094   -35.758823
	   41 D(2,1,11,12)    =     84.167378    -0.000014    -0.160903    84.006475
	   42 D(3,11,1,9)     =    -58.199031     0.000039     1.855179   -56.343851
	   43 D(3,11,1,13)    =     30.464025     0.000014     1.360174    31.824198
	   44 D(4,11,1,9)     =     65.958875     0.000004     0.397385    66.356261
	   45 D(4,11,1,13)    =    154.621931    -0.000022    -0.097620   154.524310
	   46 D(5,6,9,10)     =     60.662376    -0.000009     0.694231    61.356607
	   47 D(6,9,1,11)     =    125.632051     0.000013     1.171987   126.804038
	   48 D(6,9,1,13)     =     12.682578     0.000002     0.958333    13.640911
	   49 D(7,6,9,10)     =    -61.678829    -0.000008     0.728012   -60.950817
	   50 D(8,6,9,10)     =    179.167600    -0.000009     0.725671   179.893272
	   51 D(9,1,11,12)    =   -175.001018     0.000021     1.122577  -173.878441
	   52 D(10,9,1,11)    =   -121.843772     0.000014     1.645410  -120.198361
	   53 D(10,9,1,13)    =    125.206756     0.000003     1.431756   126.638512
	   54 D(12,11,1,13)   =    -86.337962    -0.000005     0.627571   -85.710391
	 ---------------------------------------------------------------------------
	Successfully symmetrized geometry.

  ==> Convergence Check <==

  Measures of convergence in internal coordinates in au.
  Criteria marked as inactive (o), active & met (*), and active & unmet ( ).
  --------------------------------------------------------------------------------------------- ~
   Step     Total Energy     Delta E     MAX Force     RMS Force      MAX Disp      RMS Disp    ~
  --------------------------------------------------------------------------------------------- ~
    Convergence Criteria    1.00e-06 *    3.00e-04 *             o    1.20e-03 *             o  ~
  --------------------------------------------------------------------------------------------- ~
      1    -567.24528276   -5.67e+02      1.08e-02      2.71e-03 o    1.91e-01      3.05e-02 o  ~
  ---------------------------------------------------------------------------------------------

	Writing optimization data to binary file.
	Structure for next step:
	Cartesian Geometry (in Angstrom)
	    C    -0.0825205849  -0.6447303381  -0.8331656736
	    O    -1.1022652662  -0.7694306529  -1.4413935686
	    F     1.0491145623  -0.0123686159   1.1515655194
	    F    -1.1117706953   0.0159875978   1.2133908252
	    H     1.2538862986   3.1188268126  -1.9281643643
	    C     1.2732880288   2.0588328717  -1.6658707976
	    H     1.3023239315   1.4617830529  -2.5837551119
	    H     2.1696971565   1.8592791550  -1.0801751104
	    O     0.1665484626   1.7060918815  -0.8479337818
	    H    -0.6560811443   1.8661626057  -1.3214583602
	    C    -0.0601368570  -0.6020099247   0.7022556931
	    F    -0.0520818274  -1.8708795199   1.1511741807
	    H     0.9236490058  -0.7315077274  -1.2791737937
			--------------------------
			 OPTKING Finished Execution 
			--------------------------

    Structure for next step:
    Molecular point group: c1
    Full point group: C1

    Geometry (in Angstrom), charge = 0, multiplicity = 1:

    C           -0.093699799062    -0.620779205515    -0.835973348452
    O           -1.113444480373    -0.745479520316    -1.444201243464
    F            1.037935348132     0.011582516694     1.148757844516
    F           -1.122949909483     0.039938730370     1.210583150372
    H            1.242707084451     3.142777945189    -1.930972039206
    C            1.262108814678     2.082784004312    -1.668678472445
    H            1.291144717338     1.485734185426    -2.586562786720
    H            2.158517942372     1.883230287594    -1.082982785269
    O            0.155369248483     1.730043014028    -0.850741456616
    H           -0.667260358462     1.890113738257    -1.324266035096
    C           -0.071316071145    -0.578058792127     0.699448018238
    F           -0.063261041600    -1.846928387326     1.148366505885
    H            0.912469791605    -0.707556594832    -1.281981468546

gradient() will perform analytic gradient computation.

*** tstart() called on localhost.localdomain
*** at Tue Mar 19 13:05:45 2019

   => Loading Basis Set <=

    Name: 6-311++G(D,P)
    Role: ORBITAL
    Keyword: BASIS
    atoms 1, 6, 11       entry C          line   119 file /root/psi4conda/share/psi4/basis/6-311ppg_d_p_.gbs 
    atoms 2, 9           entry O          line   161 file /root/psi4conda/share/psi4/basis/6-311ppg_d_p_.gbs 
    atoms 3-4, 12        entry F          line   182 file /root/psi4conda/share/psi4/basis/6-311ppg_d_p_.gbs 
    atoms 5, 7-8, 10, 13 entry H          line    42 file /root/psi4conda/share/psi4/basis/6-311ppg_d_p_.gbs 


         ---------------------------------------------------------
                                   SCF
            by Justin Turney, Rob Parrish, Andy Simmonett
                             and Daniel Smith
                              RKS Reference
                       16 Threads,    500 MiB Core
         ---------------------------------------------------------

  ==> Geometry <==

    Molecular point group: c1
    Full point group: C1

    Geometry (in Angstrom), charge = 0, multiplicity = 1:

       Center              X                  Y                   Z               Mass       
    ------------   -----------------  -----------------  -----------------  -----------------
         C           -0.093699799062    -0.620779205515    -0.835973348452    12.000000000000
         O           -1.113444480373    -0.745479520316    -1.444201243464    15.994914619560
         F            1.037935348132     0.011582516694     1.148757844516    18.998403224000
         F           -1.122949909483     0.039938730370     1.210583150372    18.998403224000
         H            1.242707084451     3.142777945189    -1.930972039206     1.007825032070
         C            1.262108814678     2.082784004312    -1.668678472445    12.000000000000
         H            1.291144717338     1.485734185426    -2.586562786720     1.007825032070
         H            2.158517942372     1.883230287594    -1.082982785269     1.007825032070
         O            0.155369248483     1.730043014028    -0.850741456616    15.994914619560
         H           -0.667260358462     1.890113738257    -1.324266035096     1.007825032070
         C           -0.071316071145    -0.578058792127     0.699448018238    12.000000000000
         F           -0.063261041600    -1.846928387326     1.148366505885    18.998403224000
         H            0.912469791605    -0.707556594832    -1.281981468546     1.007825032070

  Running in c1 symmetry.

  Rotational constants: A =      0.09712  B =      0.04628  C =      0.03973 [cm^-1]
  Rotational constants: A =   2911.44516  B =   1387.44849  C =   1191.18464 [MHz]
  Nuclear repulsion =  428.410066472501001

  Charge       = 0
  Multiplicity = 1
  Electrons    = 66
  Nalpha       = 33
  Nbeta        = 33

  ==> Algorithm <==

  SCF Algorithm Type is DF.
  DIIS enabled.
  MOM disabled.
  Fractional occupation disabled.
  Guess Type is READ.
  Energy threshold   = 1.00e-08
  Density threshold  = 1.00e-08
  Integral threshold = 0.00e+00

  ==> Primary Basis <==

  Basis Set: 6-311++G(D,P)
    Blend: 6-311++G(D,P)
    Number of shells: 105
    Number of basis function: 211
    Number of Cartesian functions: 219
    Spherical Harmonics?: true
    Max angular momentum: 2

  ==> DFT Potential <==

   => Composite Functional: M06-2X <= 

    Hybrid M06-2X Meta-GGA XC Functional

    Y. Zhao and D. G. Truhlar,  Theor. Chem. Acc., 120, 215, 2008


    Deriv               =              1
    GGA                 =           TRUE
    Meta                =           TRUE

    Exchange Hybrid     =           TRUE
    MP2 Hybrid          =          FALSE

   => Exchange Functionals <=

    1.0000   XC_HYB_MGGA_X_M06_2X

   => Exact (HF) Exchange <=

    0.5400               HF 

   => Correlation Functionals <=

    1.0000   XC_MGGA_C_M06_2X

   => Molecular Quadrature <=

    Radial Scheme       =       TREUTLER
    Pruning Scheme      =           FLAT
    Nuclear Scheme      =       TREUTLER

    BS radius alpha     =              1
    Pruning alpha       =              1
    Radial Points       =             75
    Spherical Points    =            302
    Total Points        =         294450
    Total Blocks        =           2246
    Max Points          =            256
    Max Functions       =            197

   => Loading Basis Set <=

    Name: (6-311++G(D,P) AUX)
    Role: JKFIT
    Keyword: DF_BASIS_SCF
    atoms 1, 6, 11       entry C          line   162 file /root/psi4conda/share/psi4/basis/aug-cc-pvtz-jkfit.gbs 
    atoms 2, 9           entry O          line   286 file /root/psi4conda/share/psi4/basis/aug-cc-pvtz-jkfit.gbs 
    atoms 3-4, 12        entry F          line   348 file /root/psi4conda/share/psi4/basis/aug-cc-pvtz-jkfit.gbs 
    atoms 5, 7-8, 10, 13 entry H          line    70 file /root/psi4conda/share/psi4/basis/aug-cc-pvtz-jkfit.gbs 

  Reading orbitals from file 180, no projection.

  ==> Pre-Iterations <==

   -------------------------------------------------------
    Irrep   Nso     Nmo     Nalpha   Nbeta   Ndocc  Nsocc
   -------------------------------------------------------
     A        211     211       0       0       0       0
   -------------------------------------------------------
    Total     211     211      33      33      33       0
   -------------------------------------------------------

  ==> Integral Setup <==

  DFHelper Memory: AOs need 0.423 [GiB]; user supplied 0.366 [GiB]. Turning off in-core AOs.

  ==> MemDFJK: Density-Fitted J/K Matrices <==

    J tasked:                   Yes
    K tasked:                   Yes
    wK tasked:                   No
    OpenMP threads:              16
    Memory (MB):                375
    Algorithm:                 Disk
    Schwarz Cutoff:           1E-12
    Mask sparsity (%):       7.9962
    Fitting Condition:        1E-12

   => Auxiliary Basis Set <=

  Basis Set: (6-311++G(D,P) AUX)
    Blend: AUG-CC-PVTZ-JKFIT
    Number of shells: 310
    Number of basis function: 1062
    Number of Cartesian functions: 1323
    Spherical Harmonics?: true
    Max angular momentum: 4

  Minimum eigenvalue in the overlap matrix is 7.4357356926E-05.
  Using Symmetric Orthogonalization.

  SCF Guess: Orbitals guess was supplied from a previous computation.

  ==> Iterations <==

                           Total Energy        Delta E     RMS |[F,P]|

   @DF-RKS iter   0:  -567.24450464282438   -5.67245e+02   3.29554e-03 
   @DF-RKS iter   1:  -567.24708217631974   -2.57753e-03   3.63215e-04 
   @DF-RKS iter   2:  -567.24737184538287   -2.89669e-04   2.74429e-04 DIIS
   @DF-RKS iter   3:  -567.24745470165749   -8.28563e-05   1.29806e-04 DIIS
   @DF-RKS iter   4:  -567.24747598152101   -2.12799e-05   5.18409e-05 DIIS
   @DF-RKS iter   5:  -567.24747898371913   -3.00220e-06   1.39158e-05 DIIS
   @DF-RKS iter   6:  -567.24747923070277   -2.46984e-07   4.20181e-06 DIIS
   @DF-RKS iter   7:  -567.24747926746375   -3.67610e-08   1.11247e-06 DIIS
   @DF-RKS iter   8:  -567.24747927376768   -6.30394e-09   5.65807e-07 DIIS
   @DF-RKS iter   9:  -567.24747927463841   -8.70727e-10   1.90703e-07 DIIS
   @DF-RKS iter  10:  -567.24747927493377   -2.95358e-10   6.86844e-08 DIIS
   @DF-RKS iter  11:  -567.24747927497765   -4.38831e-11   2.66086e-08 DIIS
   @DF-RKS iter  12:  -567.24747927498004   -2.38742e-12   7.82958e-09 DIIS

  ==> Post-Iterations <==

    Orbital Energies [Eh]
    ---------------------

    Doubly Occupied:                                                      

       1A    -25.286466     2A    -25.286355     3A    -25.286103  
       4A    -19.658954     5A    -19.655571     6A    -10.806676  
       7A    -10.672046     8A    -10.603497     9A     -1.481221  
      10A     -1.388931    11A     -1.384946    12A     -1.217153  
      13A     -1.176409    14A     -0.865536    15A     -0.805493  
      16A     -0.762004    17A     -0.707373    18A     -0.704663  
      19A     -0.655831    20A     -0.617562    21A     -0.585991  
      22A     -0.584507    23A     -0.568910    24A     -0.557198  
      25A     -0.543475    26A     -0.537411    27A     -0.526193  
      28A     -0.521673    29A     -0.519555    30A     -0.488800  
      31A     -0.438740    32A     -0.382637    33A     -0.366992  

    Virtual:                                                              

      34A     -0.014682    35A     -0.010075    36A      0.007119  
      37A      0.017463    38A      0.025216    39A      0.044238  
      40A      0.052686    41A      0.060857    42A      0.066115  
      43A      0.070140    44A      0.091753    45A      0.099590  
      46A      0.103915    47A      0.110478    48A      0.120039  
      49A      0.131135    50A      0.136595    51A      0.152060  
      52A      0.181131    53A      0.182806    54A      0.196122  
      55A      0.203431    56A      0.225522    57A      0.231293  
      58A      0.238981    59A      0.244669    60A      0.257997  
      61A      0.263337    62A      0.275100    63A      0.283848  
      64A      0.289536    65A      0.304588    66A      0.306142  
      67A      0.321416    68A      0.328804    69A      0.332213  
      70A      0.339293    71A      0.350421    72A      0.366033  
      73A      0.370833    74A      0.379420    75A      0.389082  
      76A      0.400255    77A      0.406988    78A      0.419009  
      79A      0.427286    80A      0.453146    81A      0.466563  
      82A      0.486700    83A      0.501168    84A      0.550675  
      85A      0.576039    86A      0.597020    87A      0.615244  
      88A      0.639197    89A      0.651820    90A      0.680414  
      91A      0.687397    92A      0.690684    93A      0.717225  
      94A      0.725049    95A      0.746575    96A      0.796941  
      97A      0.915384    98A      0.964829    99A      1.013764  
     100A      1.034553   101A      1.075122   102A      1.111065  
     103A      1.151457   104A      1.160547   105A      1.194412  
     106A      1.219558   107A      1.242412   108A      1.281768  
     109A      1.320392   110A      1.352483   111A      1.381168  
     112A      1.387536   113A      1.442529   114A      1.449908  
     115A      1.460772   116A      1.473052   117A      1.485428  
     118A      1.501657   119A      1.507665   120A      1.529689  
     121A      1.537147   122A      1.549959   123A      1.569297  
     124A      1.587782   125A      1.608349   126A      1.635195  
     127A      1.672912   128A      1.694223   129A      1.719820  
     130A      1.730440   131A      1.750241   132A      1.797129  
     133A      1.825161   134A      1.869774   135A      1.928869  
     136A      1.968833   137A      2.010952   138A      2.014696  
     139A      2.030368   140A      2.066653   141A      2.077326  
     142A      2.150320   143A      2.222880   144A      2.272041  
     145A      2.357763   146A      2.441718   147A      2.476915  
     148A      2.489526   149A      2.535623   150A      2.538614  
     151A      2.597125   152A      2.666485   153A      2.738678  
     154A      2.835384   155A      2.892436   156A      2.914355  
     157A      2.929205   158A      3.011479   159A      3.017668  
     160A      3.041374   161A      3.065660   162A      3.180291  
     163A      3.253507   164A      3.317318   165A      3.402661  
     166A      3.491132   167A      3.570016   168A      3.654421  
     169A      3.779289   170A      3.800642   171A      3.820143  
     172A      3.835849   173A      3.838115   174A      3.857690  
     175A      3.862034   176A      3.867539   177A      3.888515  
     178A      3.960319   179A      3.992006   180A      4.026134  
     181A      4.049681   182A      4.080721   183A      4.220699  
     184A      4.293016   185A      4.302849   186A      4.677674  
     187A      4.991404   188A      5.002200   189A      5.141847  
     190A      5.219281   191A      5.241331   192A      5.529109  
     193A      5.721150   194A      5.786734   195A      6.425794  
     196A      6.452552   197A      6.490898   198A      6.497682  
     199A      6.507077   200A      6.538639   201A      6.592054  
     202A      6.887313   203A      6.907325   204A     23.594139  
     205A     23.928313   206A     23.982189   207A     49.990649  
     208A     50.072169   209A     66.880567   210A     66.888578  
     211A     66.943309  

    Final Occupation by Irrep:
              A 
    DOCC [    33 ]

  Energy converged.

  @DF-RKS Final Energy:  -567.24747927498004

   => Energetics <=

    Nuclear Repulsion Energy =            428.4100664725010006
    One-Electron Energy =               -1633.5717309480269250
    Two-Electron Energy =                 669.9266374227820506
    DFT Exchange-Correlation Energy =     -32.0124522222361776
    Empirical Dispersion Energy =           0.0000000000000000
    VV10 Nonlocal Energy =                  0.0000000000000000
    Total Energy =                       -567.2474792749800372



Properties will be evaluated at   0.000000,   0.000000,   0.000000 [a0]

Properties computed using the SCF density matrix

  Nuclear Dipole Moment: [e a0]
     X:     4.7641      Y:     8.9116      Z:   -11.0136

  Electronic Dipole Moment: [e a0]
     X:    -3.9468      Y:    -8.1702      Z:    10.0645

  Dipole Moment: [e a0]
     X:     0.8173      Y:     0.7414      Z:    -0.9492     Total:     1.4555

  Dipole Moment: [D]
     X:     2.0773      Y:     1.8844      Z:    -2.4126     Total:     3.6995


*** tstop() called on localhost.localdomain at Tue Mar 19 13:05:57 2019
Module time:
	user time   =     168.85 seconds =       2.81 minutes
	system time =       6.33 seconds =       0.11 minutes
	total time  =         12 seconds =       0.20 minutes
Total time:
	user time   =     450.80 seconds =       7.51 minutes
	system time =      16.67 seconds =       0.28 minutes
	total time  =         31 seconds =       0.52 minutes

*** tstart() called on localhost.localdomain
*** at Tue Mar 19 13:05:57 2019


         ------------------------------------------------------------
                                   SCF GRAD                          
                          Rob Parrish, Justin Turney,                
                       Andy Simmonett, and Alex Sokolov              
         ------------------------------------------------------------

  ==> Geometry <==

    Molecular point group: c1
    Full point group: C1

    Geometry (in Angstrom), charge = 0, multiplicity = 1:

       Center              X                  Y                   Z               Mass       
    ------------   -----------------  -----------------  -----------------  -----------------
         C           -0.093699799062    -0.620779205515    -0.835973348452    12.000000000000
         O           -1.113444480373    -0.745479520316    -1.444201243464    15.994914619560
         F            1.037935348132     0.011582516694     1.148757844516    18.998403224000
         F           -1.122949909483     0.039938730370     1.210583150372    18.998403224000
         H            1.242707084451     3.142777945189    -1.930972039206     1.007825032070
         C            1.262108814678     2.082784004312    -1.668678472445    12.000000000000
         H            1.291144717338     1.485734185426    -2.586562786720     1.007825032070
         H            2.158517942372     1.883230287594    -1.082982785269     1.007825032070
         O            0.155369248483     1.730043014028    -0.850741456616    15.994914619560
         H           -0.667260358462     1.890113738257    -1.324266035096     1.007825032070
         C           -0.071316071145    -0.578058792127     0.699448018238    12.000000000000
         F           -0.063261041600    -1.846928387326     1.148366505885    18.998403224000
         H            0.912469791605    -0.707556594832    -1.281981468546     1.007825032070

  Nuclear repulsion =  428.410066472501001

  ==> Basis Set <==

  Basis Set: 6-311++G(D,P)
    Blend: 6-311++G(D,P)
    Number of shells: 105
    Number of basis function: 211
    Number of Cartesian functions: 219
    Spherical Harmonics?: true
    Max angular momentum: 2

  ==> DFJKGrad: Density-Fitted SCF Gradients <==

    Gradient:                    1
    J tasked:                  Yes
    K tasked:                  Yes
    wK tasked:                  No
    OpenMP threads:             16
    Integrals threads:          16
    Memory (MB):               375
    Schwarz Cutoff:          0E+00
    Fitting Condition:       1E-12

   => Auxiliary Basis Set <=

  Basis Set: (6-311++G(D,P) AUX)
    Blend: AUG-CC-PVTZ-JKFIT
    Number of shells: 310
    Number of basis function: 1062
    Number of Cartesian functions: 1323
    Spherical Harmonics?: true
    Max angular momentum: 4

  ==> DFT Potential <==

   => Composite Functional: M06-2X <= 

    Hybrid M06-2X Meta-GGA XC Functional

    Y. Zhao and D. G. Truhlar,  Theor. Chem. Acc., 120, 215, 2008


    Deriv               =              1
    GGA                 =           TRUE
    Meta                =           TRUE

    Exchange Hybrid     =           TRUE
    MP2 Hybrid          =          FALSE

   => Exchange Functionals <=

    1.0000   XC_HYB_MGGA_X_M06_2X

   => Exact (HF) Exchange <=

    0.5400               HF 

   => Correlation Functionals <=

    1.0000   XC_MGGA_C_M06_2X

   => Molecular Quadrature <=

    Radial Scheme       =       TREUTLER
    Pruning Scheme      =           FLAT
    Nuclear Scheme      =       TREUTLER

    BS radius alpha     =              1
    Pruning alpha       =              1
    Radial Points       =             75
    Spherical Points    =            302
    Total Points        =         294450
    Total Blocks        =           2246
    Max Points          =            256
    Max Functions       =            197


  -Total Gradient:
     Atom            X                  Y                   Z
    ------   -----------------  -----------------  -----------------
       1        0.002646966823     0.010697224482     0.001253336558
       2       -0.001645391942    -0.000758410515    -0.000807348412
       3       -0.000919317619     0.001109178123     0.000051196334
       4        0.001148601404     0.000394635453     0.000357721392
       5       -0.000097842728    -0.000200062086    -0.000103224109
       6        0.000686006818    -0.000788632273    -0.000123025546
       7       -0.000049934910    -0.000038137633    -0.000133150645
       8        0.000104563609     0.000054171012    -0.000044417938
       9       -0.001043238451    -0.003084194797     0.000000122429
      10       -0.000697192299    -0.000891583497    -0.000103860982
      11       -0.000572199695    -0.001796406868    -0.001080485461
      12        0.000087807063    -0.002252142231     0.000146373097
      13        0.000253737845    -0.002418611942     0.000730858445


*** tstop() called on localhost.localdomain at Tue Mar 19 13:06:01 2019
Module time:
	user time   =      53.09 seconds =       0.88 minutes
	system time =       1.79 seconds =       0.03 minutes
	total time  =          4 seconds =       0.07 minutes
Total time:
	user time   =     503.91 seconds =       8.40 minutes
	system time =      18.47 seconds =       0.31 minutes
	total time  =         35 seconds =       0.58 minutes

			-----------------------------------------
			 OPTKING 2.0: for geometry optimizations 
			  - R.A. King,  Bethel University        
			-----------------------------------------

	Previous internal coordinate definitions found.
	---Fragment 1 Geometry and Gradient---
	 C          -0.1770669589       -1.1731026874       -1.5797606830
	 O          -2.1041051321       -1.4087521311       -2.7291448309
	 F           1.9614135516        0.0218877845        2.1708377191
	 F          -2.1220677899        0.0754732625        2.2876706153
	 H           2.3483760530        5.9389896129       -3.6490083244
	 C           2.3850400096        3.9358913621       -3.1533453168
	 H           2.4399099137        2.8076307167       -4.8878952924
	 H           4.0790077640        3.5587894887       -2.0465408708
	 O           0.2936053291        3.2693074946       -1.6076683629
	 H          -1.2609393368        3.5717973253       -2.5025001334
	 C          -0.1347678433       -1.0923728058        1.3217651987
	 F          -0.1195460435       -3.4901888391        2.1700981963
	 H           1.7243180107       -1.3370881877       -2.4225938830
	             0.0026469668        0.0106972245        0.0012533366
	            -0.0016453919       -0.0007584105       -0.0008073484
	            -0.0009193176        0.0011091781        0.0000511963
	             0.0011486014        0.0003946355        0.0003577214
	            -0.0000978427       -0.0002000621       -0.0001032241
	             0.0006860068       -0.0007886323       -0.0001230255
	            -0.0000499349       -0.0000381376       -0.0001331506
	             0.0001045636        0.0000541710       -0.0000444179
	            -0.0010432385       -0.0030841948        0.0000001224
	            -0.0006971923       -0.0008915835       -0.0001038610
	            -0.0005721997       -0.0017964069       -0.0010804855
	             0.0000878071       -0.0022521422        0.0001463731
	             0.0002537378       -0.0024186119        0.0007308584

	---Fragment 1 Intrafragment Coordinates---
	 - Coordinate -           - BOHR/RAD -       - ANG/DEG -
	 R(1,2)           =         2.256123	       1.193889
	 R(1,9)           =         4.467362	       2.364026
	 R(1,11)          =         2.902957	       1.536179
	 R(1,13)          =         2.086270	       1.104007
	 R(3,11)          =         2.521206	       1.334164
	 R(4,11)          =         2.499240	       1.322541
	 R(5,6)           =         2.063838	       1.092136
	 R(6,7)           =         2.069939	       1.095364
	 R(6,8)           =         2.058336	       1.089225
	 R(6,9)           =         2.684688	       1.420676
	 R(9,10)          =         1.819020	       0.962584
	 R(11,12)         =         2.543506	       1.345965
	 B(1,9,6)         =         1.909831	     109.425276
	 B(1,9,10)        =         1.649274	      94.496461
	 B(1,11,3)        =         1.940149	     111.162338
	 B(1,11,4)        =         1.968929	     112.811320
	 B(1,11,12)       =         1.883083	     107.892687
	 B(2,1,9)         =         1.762644	     100.992068
	 B(2,1,11)        =         2.122983	     121.637970
	 B(2,1,13)        =         2.170527	     124.362035
	 B(3,11,4)        =         1.901217	     108.931697
	 B(3,11,12)       =         1.874799	     107.418061
	 B(4,11,12)       =         1.892699	     108.443637
	 B(5,6,7)         =         1.905243	     109.162396
	 B(5,6,8)         =         1.898191	     108.758307
	 B(5,6,9)         =         1.944877	     111.433235
	 B(6,9,10)        =         1.919038	     109.952778
	 B(7,6,8)         =         1.905952	     109.203010
	 B(7,6,9)         =         1.947402	     111.577943
	 B(8,6,9)         =         1.860895	     106.621416
	 B(9,1,11)        =         1.547849	      88.685207
	 B(9,1,13)        =         1.550413	      88.832134
	 B(11,1,13)       =         1.974359	     113.122443
	 D(1,9,6,5)       =         2.859862	     163.858025
	 D(1,9,6,7)       =         0.725195	      41.550600
	 D(1,9,6,8)       =        -1.354468	     -77.605311
	 D(2,1,9,6)       =        -1.940598	    -111.188048
	 D(2,1,9,10)      =         0.031583	       1.809553
	 D(2,1,11,3)      =        -2.765630	    -158.458935
	 D(2,1,11,4)      =        -0.624109	     -35.758823
	 D(2,1,11,12)     =         1.466190	      84.006475
	 D(3,11,1,9)      =        -0.983386	     -56.343851
	 D(3,11,1,13)     =         0.555437	      31.824198
	 D(4,11,1,9)      =         1.158135	      66.356261
	 D(4,11,1,13)     =         2.696958	     154.524310
	 D(5,6,9,10)      =         1.070875	      61.356607
	 D(6,9,1,11)      =         2.213148	     126.804038
	 D(6,9,1,13)      =         0.238079	      13.640911
	 D(7,6,9,10)      =        -1.063792	     -60.950817
	 D(8,6,9,10)      =         3.139730	     179.893272
	 D(9,1,11,12)     =        -3.034751	    -173.878441
	 D(10,9,1,11)     =        -2.097857	    -120.198361
	 D(10,9,1,13)     =         2.210259	     126.638512
	 D(12,11,1,13)    =        -1.495929	     -85.710391

	Current energy   :      -567.2474792750

	Energy change for the previous step:
		Projected    :        -0.0024690610
		Actual       :        -0.0021965117
	Energy ratio indicates good step: Trust radius increased to 1.000e+00.


	Performing BFGS update.
	Previous computed or guess Hessian on step 1.
	Steps to be used in Hessian update: 1
	Taking RFO optimization step.
	Going to follow RFO solution 1.
	Using RFO vector 1.
	Norm of target step-size    0.31991
	Projected energy change by RFO approximation:        -0.0024641871

	Back-transformation to cartesian coordinates...
	Successfully converged to displaced geometry.

	--- Internal Coordinate Step in ANG or DEG, aJ/ANG or AJ/DEG ---
	 ---------------------------------------------------------------------------
	   Coordinate                Previous        Force       Change         New 
	   ----------                --------       ------       ------       ------
	    1 R(1,2)          =      1.193889    -0.015573    -0.001171     1.192718
	    2 R(1,9)          =      2.364026     0.041267     0.110093     2.474119
	    3 R(1,11)         =      1.536179     0.005463     0.000841     1.537019
	    4 R(1,13)         =      1.104007    -0.001222    -0.000390     1.103616
	    5 R(3,11)         =      1.334164     0.002120    -0.000311     1.333854
	    6 R(4,11)         =      1.322541     0.005020     0.000504     1.323045
	    7 R(5,6)          =      1.092136     0.001319     0.000486     1.092622
	    8 R(6,7)          =      1.095364    -0.001076    -0.000361     1.095004
	    9 R(6,8)          =      1.089225    -0.000408    -0.000100     1.089124
	   10 R(6,9)          =      1.420676    -0.004197     0.000160     1.420835
	   11 R(9,10)         =      0.962584    -0.004140    -0.000556     0.962028
	   12 R(11,12)        =      1.345965    -0.017924    -0.002183     1.343783
	   13 B(1,9,6)        =    109.425276     0.000170     1.473515   110.898791
	   14 B(1,9,10)       =     94.496461     0.000019     1.130562    95.627023
	   15 B(1,11,3)       =    111.162338    -0.000004    -0.559960   110.602378
	   16 B(1,11,4)       =    112.811320    -0.000084    -0.556626   112.254694
	   17 B(1,11,12)      =    107.892687     0.000078     1.074293   108.966981
	   18 B(2,1,9)        =    100.992068     0.000133     0.189107   101.181175
	   19 B(2,1,11)       =    121.637970     0.000026    -0.042540   121.595430
	   20 B(2,1,13)       =    124.362035    -0.000032     0.037150   124.399185
	   21 B(3,11,4)       =    108.931697     0.000097     0.846343   109.778039
	   22 B(3,11,12)      =    107.418061    -0.000060    -0.337239   107.080821
	   23 B(4,11,12)      =    108.443637    -0.000028    -0.460195   107.983442
	   24 B(5,6,7)        =    109.162396     0.000006     0.106897   109.269293
	   25 B(5,6,8)        =    108.758307     0.000000    -0.019658   108.738649
	   26 B(5,6,9)        =    111.433235     0.000005     0.075336   111.508571
	   27 B(6,9,10)       =    109.952778    -0.000050    -0.271426   109.681352
	   28 B(7,6,8)        =    109.203010     0.000001    -0.015484   109.187527
	   29 B(7,6,9)        =    111.577943     0.000005     0.066986   111.644929
	   30 B(8,6,9)        =    106.621416    -0.000017    -0.225787   106.395629
	   31 B(9,1,11)       =     88.685207    -0.000337    -3.134973    85.550234
	   32 B(9,1,13)       =     88.832134     0.000008    -2.043811    86.788323
	   33 B(11,1,13)      =    113.122443     0.000039     0.684699   113.807143
	   34 D(1,9,6,5)      =    163.858025     0.000011     1.836796   165.694820
	   35 D(1,9,6,7)      =     41.550600     0.000008     1.596315    43.146915
	   36 D(1,9,6,8)      =    -77.605311     0.000010     1.717205   -75.888106
	   37 D(2,1,9,6)      =   -111.188048    -0.000002    -1.691843  -112.879890
	   38 D(2,1,9,10)     =      1.809553    -0.000003    -1.119216     0.690337
	   39 D(2,1,11,3)     =   -158.458935     0.000008    -1.192454  -159.651389
	   40 D(2,1,11,4)     =    -35.758823     0.000023    -0.907377   -36.666201
	   41 D(2,1,11,12)    =     84.006475     0.000015    -1.109646    82.896829
	   42 D(3,11,1,9)     =    -56.343851    -0.000003    -2.909817   -59.253669
	   43 D(3,11,1,13)    =     31.824198    -0.000035    -6.572633    25.251566
	   44 D(4,11,1,9)     =     66.356261     0.000011    -2.624741    63.731520
	   45 D(4,11,1,13)    =    154.524310    -0.000020    -6.287556   148.236754
	   46 D(5,6,9,10)     =     61.356607    -0.000006    -0.023765    61.332843
	   47 D(6,9,1,11)     =    126.804038     0.000006    -1.035462   125.768576
	   48 D(6,9,1,13)     =     13.640911    -0.000005    -2.069845    11.571066
	   49 D(7,6,9,10)     =    -60.950817    -0.000010    -0.264245   -61.215062
	   50 D(8,6,9,10)     =    179.893272    -0.000008    -0.143355   179.749916
	   51 D(9,1,11,12)    =   -173.878441     0.000003    -2.827009  -176.705450
	   52 D(10,9,1,11)    =   -120.198361     0.000005    -0.462836  -120.661197
	   53 D(10,9,1,13)    =    126.638512    -0.000007    -1.497219   125.141293
	   54 D(12,11,1,13)   =    -85.710391    -0.000028    -6.489825   -92.200216
	 ---------------------------------------------------------------------------
	Successfully symmetrized geometry.

  ==> Convergence Check <==

  Measures of convergence in internal coordinates in au.
  Criteria marked as inactive (o), active & met (*), and active & unmet ( ).
  ---------------------------------------------------------------------------------------------
   Step     Total Energy     Delta E     MAX Force     RMS Force      MAX Disp      RMS Disp   
  ---------------------------------------------------------------------------------------------
    Convergence Criteria    1.00e-06 *    3.00e-04 *             o    1.20e-03 *             o
  ---------------------------------------------------------------------------------------------
      2    -567.24747927   -2.20e-03      5.01e-03      1.23e-03 o    2.08e-01      4.35e-02 o  ~
  ---------------------------------------------------------------------------------------------

	Writing optimization data to binary file.
	Structure for next step:
	Cartesian Geometry (in Angstrom)
	    C    -0.1161844564  -0.7151265046  -0.8479235309
	    O    -1.1555490227  -0.8300064464  -1.4215952118
	    F     1.1055912072  -0.0602513363   1.0659257681
	    F    -1.0597660120   0.0872661378   1.1816091546
	    H     1.2407461080   3.2053959115  -1.8623074462
	    C     1.2575976309   2.1331660145  -1.6528729209
	    H     1.2772125367   1.5806247707  -2.5980427977
	    H     2.1572445570   1.9018309573  -1.0842680608
	    O     0.1586742354   1.7436670361  -0.8408193727
	    H    -0.6658180978   1.9320754216  -1.2993088391
	    C    -0.0494955136  -0.6070141611   0.6838376977
	    F    -0.0950981930  -1.8421257083   1.2112576048
	    H     0.8731663073  -0.7621001710  -1.3346961620
			--------------------------
			 OPTKING Finished Execution 
			--------------------------

    Structure for next step:
    Molecular point group: c1
    Full point group: C1

    Geometry (in Angstrom), charge = 0, multiplicity = 1:

    C           -0.124973084889    -0.698063007466    -0.843911050895
    O           -1.164337651221    -0.812942949211    -1.417582731834
    F            1.096802578740    -0.043187839073     1.069938248038
    F           -1.068554640471     0.104329634980     1.185621634523
    H            1.231957479478     3.222459408648    -1.858294966238
    C            1.248809002386     2.150229511650    -1.648860440896
    H            1.268423908173     1.597688267909    -2.594030317738
    H            2.148455928533     1.918894454512    -1.080255580793
    O            0.149885606858     1.760730533258    -0.836806892757
    H           -0.674606726249     1.949138918764    -1.295296359112
    C           -0.058284142106    -0.589950663885     0.687850177647
    F           -0.103886821501    -1.825062211123     1.215270084752
    H            0.864377678756    -0.745036673862    -1.330683682044

gradient() will perform analytic gradient computation.

*** tstart() called on localhost.localdomain
*** at Tue Mar 19 13:06:01 2019

   => Loading Basis Set <=

    Name: 6-311++G(D,P)
    Role: ORBITAL
    Keyword: BASIS
    atoms 1, 6, 11       entry C          line   119 file /root/psi4conda/share/psi4/basis/6-311ppg_d_p_.gbs 
    atoms 2, 9           entry O          line   161 file /root/psi4conda/share/psi4/basis/6-311ppg_d_p_.gbs 
    atoms 3-4, 12        entry F          line   182 file /root/psi4conda/share/psi4/basis/6-311ppg_d_p_.gbs 
    atoms 5, 7-8, 10, 13 entry H          line    42 file /root/psi4conda/share/psi4/basis/6-311ppg_d_p_.gbs 


         ---------------------------------------------------------
                                   SCF
            by Justin Turney, Rob Parrish, Andy Simmonett
                             and Daniel Smith
                              RKS Reference
                       16 Threads,    500 MiB Core
         ---------------------------------------------------------

  ==> Geometry <==

    Molecular point group: c1
    Full point group: C1

    Geometry (in Angstrom), charge = 0, multiplicity = 1:

       Center              X                  Y                   Z               Mass       
    ------------   -----------------  -----------------  -----------------  -----------------
         C           -0.124973084889    -0.698063007466    -0.843911050895    12.000000000000
         O           -1.164337651221    -0.812942949211    -1.417582731834    15.994914619560
         F            1.096802578740    -0.043187839073     1.069938248038    18.998403224000
         F           -1.068554640471     0.104329634980     1.185621634523    18.998403224000
         H            1.231957479478     3.222459408648    -1.858294966238     1.007825032070
         C            1.248809002386     2.150229511650    -1.648860440896    12.000000000000
         H            1.268423908173     1.597688267909    -2.594030317738     1.007825032070
         H            2.148455928533     1.918894454512    -1.080255580793     1.007825032070
         O            0.149885606858     1.760730533258    -0.836806892757    15.994914619560
         H           -0.674606726249     1.949138918764    -1.295296359112     1.007825032070
         C           -0.058284142106    -0.589950663885     0.687850177647    12.000000000000
         F           -0.103886821501    -1.825062211123     1.215270084752    18.998403224000
         H            0.864377678756    -0.745036673862    -1.330683682044     1.007825032070

  Running in c1 symmetry.

  Rotational constants: A =      0.09598  B =      0.04586  C =      0.03919 [cm^-1]
  Rotational constants: A =   2877.26259  B =   1374.78485  C =   1174.92222 [MHz]
  Nuclear repulsion =  426.848726055258453

  Charge       = 0
  Multiplicity = 1
  Electrons    = 66
  Nalpha       = 33
  Nbeta        = 33

  ==> Algorithm <==

  SCF Algorithm Type is DF.
  DIIS enabled.
  MOM disabled.
  Fractional occupation disabled.
  Guess Type is READ.
  Energy threshold   = 1.00e-08
  Density threshold  = 1.00e-08
  Integral threshold = 0.00e+00

  ==> Primary Basis <==

  Basis Set: 6-311++G(D,P)
    Blend: 6-311++G(D,P)
    Number of shells: 105
    Number of basis function: 211
    Number of Cartesian functions: 219
    Spherical Harmonics?: true
    Max angular momentum: 2

  ==> DFT Potential <==

   => Composite Functional: M06-2X <= 

    Hybrid M06-2X Meta-GGA XC Functional

    Y. Zhao and D. G. Truhlar,  Theor. Chem. Acc., 120, 215, 2008


    Deriv               =              1
    GGA                 =           TRUE
    Meta                =           TRUE

    Exchange Hybrid     =           TRUE
    MP2 Hybrid          =          FALSE

   => Exchange Functionals <=

    1.0000   XC_HYB_MGGA_X_M06_2X

   => Exact (HF) Exchange <=

    0.5400               HF 

   => Correlation Functionals <=

    1.0000   XC_MGGA_C_M06_2X

   => Molecular Quadrature <=

    Radial Scheme       =       TREUTLER
    Pruning Scheme      =           FLAT
    Nuclear Scheme      =       TREUTLER

    BS radius alpha     =              1
    Pruning alpha       =              1
    Radial Points       =             75
    Spherical Points    =            302
    Total Points        =         294450
    Total Blocks        =           2260
    Max Points          =            256
    Max Functions       =            198

   => Loading Basis Set <=

    Name: (6-311++G(D,P) AUX)
    Role: JKFIT
    Keyword: DF_BASIS_SCF
    atoms 1, 6, 11       entry C          line   162 file /root/psi4conda/share/psi4/basis/aug-cc-pvtz-jkfit.gbs 
    atoms 2, 9           entry O          line   286 file /root/psi4conda/share/psi4/basis/aug-cc-pvtz-jkfit.gbs 
    atoms 3-4, 12        entry F          line   348 file /root/psi4conda/share/psi4/basis/aug-cc-pvtz-jkfit.gbs 
    atoms 5, 7-8, 10, 13 entry H          line    70 file /root/psi4conda/share/psi4/basis/aug-cc-pvtz-jkfit.gbs 

  Reading orbitals from file 180, no projection.

  ==> Pre-Iterations <==

   -------------------------------------------------------
    Irrep   Nso     Nmo     Nalpha   Nbeta   Ndocc  Nsocc
   -------------------------------------------------------
     A        211     211       0       0       0       0
   -------------------------------------------------------
    Total     211     211      33      33      33       0
   -------------------------------------------------------

  ==> Integral Setup <==

  DFHelper Memory: AOs need 0.423 [GiB]; user supplied 0.366 [GiB]. Turning off in-core AOs.

  ==> MemDFJK: Density-Fitted J/K Matrices <==

    J tasked:                   Yes
    K tasked:                   Yes
    wK tasked:                   No
    OpenMP threads:              16
    Memory (MB):                375
    Algorithm:                 Disk
    Schwarz Cutoff:           1E-12
    Mask sparsity (%):       8.0861
    Fitting Condition:        1E-12

   => Auxiliary Basis Set <=

  Basis Set: (6-311++G(D,P) AUX)
    Blend: AUG-CC-PVTZ-JKFIT
    Number of shells: 310
    Number of basis function: 1062
    Number of Cartesian functions: 1323
    Spherical Harmonics?: true
    Max angular momentum: 4

  Minimum eigenvalue in the overlap matrix is 7.7348345427E-05.
  Using Symmetric Orthogonalization.

  SCF Guess: Orbitals guess was supplied from a previous computation.

  ==> Iterations <==

                           Total Energy        Delta E     RMS |[F,P]|

   @DF-RKS iter   0:  -567.24179274989535   -5.67242e+02   3.79271e-03 
   @DF-RKS iter   1:  -567.24818141647529   -6.38867e-03   4.83730e-04 
   @DF-RKS iter   2:  -567.24842316390254   -2.41747e-04   4.90349e-04 DIIS
   @DF-RKS iter   3:  -567.24868895505165   -2.65791e-04   1.37383e-04 DIIS
   @DF-RKS iter   4:  -567.24871423115792   -2.52761e-05   4.34364e-05 DIIS
   @DF-RKS iter   5:  -567.24871637176591   -2.14061e-06   1.34761e-05 DIIS
   @DF-RKS iter   6:  -567.24871657782001   -2.06054e-07   3.92106e-06 DIIS
   @DF-RKS iter   7:  -567.24871660219605   -2.43760e-08   1.09522e-06 DIIS
   @DF-RKS iter   8:  -567.24871660676092   -4.56487e-09   4.53941e-07 DIIS
   @DF-RKS iter   9:  -567.24871660733709   -5.76165e-10   2.04427e-07 DIIS
   @DF-RKS iter  10:  -567.24871660757105   -2.33968e-10   6.88381e-08 DIIS
   @DF-RKS iter  11:  -567.24871660761141   -4.03588e-11   2.11161e-08 DIIS
   @DF-RKS iter  12:  -567.24871660761380   -2.38742e-12   1.27393e-08 DIIS
   @DF-RKS iter  13:  -567.24871660761346    3.41061e-13   2.32336e-09 DIIS

  ==> Post-Iterations <==

    Orbital Energies [Eh]
    ---------------------

    Doubly Occupied:                                                      

       1A    -25.286952     2A    -25.286025     3A    -25.285705  
       4A    -19.663238     5A    -19.651016     6A    -10.807207  
       7A    -10.672140     8A    -10.600657     9A     -1.481549  
      10A     -1.389668    11A     -1.384548    12A     -1.219853  
      13A     -1.172065    14A     -0.865545    15A     -0.802020  
      16A     -0.762015    17A     -0.708123    18A     -0.704355  
      19A     -0.656887    20A     -0.613880    21A     -0.587529  
      22A     -0.583607    23A     -0.569974    24A     -0.554242  
      25A     -0.541746    26A     -0.537816    27A     -0.522415  
      28A     -0.521480    29A     -0.520542    30A     -0.491273  
      31A     -0.435505    32A     -0.380498    33A     -0.369222  

    Virtual:                                                              

      34A     -0.019134    35A     -0.010333    36A      0.007543  
      37A      0.017082    38A      0.025501    39A      0.043848  
      40A      0.052476    41A      0.060595    42A      0.066581  
      43A      0.070059    44A      0.091711    45A      0.097838  
      46A      0.104326    47A      0.109491    48A      0.120466  
      49A      0.131807    50A      0.135806    51A      0.151677  
      52A      0.180848    53A      0.184034    54A      0.196217  
      55A      0.205907    56A      0.221188    57A      0.233145  
      58A      0.240231    59A      0.245959    60A      0.260455  
      61A      0.262034    62A      0.275860    63A      0.284270  
      64A      0.291203    65A      0.301879    66A      0.305492  
      67A      0.323351    68A      0.328269    69A      0.331030  
      70A      0.337272    71A      0.349645    72A      0.366804  
      73A      0.369518    74A      0.376219    75A      0.385677  
      76A      0.399651    77A      0.408077    78A      0.419244  
      79A      0.430030    80A      0.456927    81A      0.471899  
      82A      0.486703    83A      0.502765    84A      0.552565  
      85A      0.573593    86A      0.593816    87A      0.616872  
      88A      0.637389    89A      0.652632    90A      0.679712  
      91A      0.689915    92A      0.691641    93A      0.713655  
      94A      0.722489    95A      0.748291    96A      0.793260  
      97A      0.898115    98A      0.969148    99A      1.019329  
     100A      1.034113   101A      1.071630   102A      1.111068  
     103A      1.152878   104A      1.159656   105A      1.189647  
     106A      1.217878   107A      1.234352   108A      1.284956  
     109A      1.313144   110A      1.343770   111A      1.385968  
     112A      1.389991   113A      1.443246   114A      1.452034  
     115A      1.459919   116A      1.471070   117A      1.484378  
     118A      1.504632   119A      1.506777   120A      1.530710  
     121A      1.545089   122A      1.557355   123A      1.564067  
     124A      1.589731   125A      1.610120   126A      1.627054  
     127A      1.659241   128A      1.688450   129A      1.720771  
     130A      1.728919   131A      1.753424   132A      1.795525  
     133A      1.828406   134A      1.867604   135A      1.927029  
     136A      1.966743   137A      2.007278   138A      2.017622  
     139A      2.026214   140A      2.054588   141A      2.081250  
     142A      2.150866   143A      2.223026   144A      2.275401  
     145A      2.358895   146A      2.443781   147A      2.471731  
     148A      2.487577   149A      2.536470   150A      2.538597  
     151A      2.588241   152A      2.665969   153A      2.732695  
     154A      2.829171   155A      2.887741   156A      2.910270  
     157A      2.919764   158A      3.008109   159A      3.019944  
     160A      3.040394   161A      3.064153   162A      3.179791  
     163A      3.256837   164A      3.319757   165A      3.397706  
     166A      3.489860   167A      3.569827   168A      3.654210  
     169A      3.781474   170A      3.801470   171A      3.820398  
     172A      3.835891   173A      3.837851   174A      3.857365  
     175A      3.861280   176A      3.868051   177A      3.887519  
     178A      3.960793   179A      3.996499   180A      4.021411  
     181A      4.049740   182A      4.077171   183A      4.220482  
     184A      4.290731   185A      4.306608   186A      4.678866  
     187A      4.992816   188A      5.002408   189A      5.142916  
     190A      5.205691   191A      5.237611   192A      5.530449  
     193A      5.722454   194A      5.782988   195A      6.422083  
     196A      6.452821   197A      6.490389   198A      6.498800  
[...]
       3       -0.000028833248     0.000000529490    -0.000008406974
       4       -0.000037248564     0.000023744226    -0.000026429948
       5       -0.000011849059    -0.000023866673    -0.000019244788
       6       -0.000016508886     0.000010536097    -0.000038111513
       7        0.000007634287    -0.000042572972    -0.000009867977
       8       -0.000025831202    -0.000012034786    -0.000006338987
       9       -0.000032102738    -0.000034205160     0.000019937236
      10        0.000024133198     0.000001801054    -0.000034132213
      11       -0.000038427461     0.000007207912    -0.000021364997
      12       -0.000051473835     0.000008168152     0.000011187647
      13       -0.000024040533    -0.000010561490     0.000003671092


*** tstop() called on localhost.localdomain at Tue Mar 19 13:21:53 2019
Module time:
	user time   =      73.65 seconds =       1.23 minutes
	system time =       2.32 seconds =       0.04 minutes
	total time  =          6 seconds =       0.10 minutes
Total time:
	user time   =   13115.89 seconds =     218.60 minutes
	system time =     493.64 seconds =       8.23 minutes
	total time  =        987 seconds =      16.45 minutes

			-----------------------------------------
			 OPTKING 2.0: for geometry optimizations 
			  - R.A. King,  Bethel University        
			-----------------------------------------

	Previous internal coordinate definitions found.
	---Fragment 1 Geometry and Gradient---
	 C          -1.1652630633       -1.8984738134       -1.1635483354
	 O          -3.3266535284       -1.6197495828       -1.7259477753
	 F           2.3961712622       -0.5615828652        1.2247689930
	 F          -1.1124794292        1.4442456767        1.8612674103
	 H           2.1296140019        4.7283755216       -0.7855071818
	 C           2.7391459451        3.6953046457       -2.4681904311
	 H           3.1446535639        5.0252404312       -3.9953508100
	 H           4.4547249071        2.6549268111       -2.0185202147
	 O           0.9057405390        1.8802862921       -3.2188670288
	 H          -0.6229156477        2.7347811502       -3.7014547449
	 C          -0.1161245424       -0.7930242268        1.3162561652
	 F          -0.6602668968       -2.3787590018        3.2157920546
	 H           0.2061726996       -3.0276325867       -2.2464156932
	             0.0000173317        0.0000010473        0.0000266349
	            -0.0000554721        0.0000187275       -0.0000227882
	            -0.0000288332        0.0000005295       -0.0000084070
	            -0.0000372486        0.0000237442       -0.0000264299
	            -0.0000118491       -0.0000238667       -0.0000192448
	            -0.0000165089        0.0000105361       -0.0000381115
	             0.0000076343       -0.0000425730       -0.0000098680
	            -0.0000258312       -0.0000120348       -0.0000063390
	            -0.0000321027       -0.0000342052        0.0000199372
	             0.0000241332        0.0000018011       -0.0000341322
	            -0.0000384275        0.0000072079       -0.0000213650
	            -0.0000514738        0.0000081682        0.0000111876
	            -0.0000240405       -0.0000105615        0.0000036711

	---Fragment 1 Intrafragment Coordinates---
	 - Coordinate -           - BOHR/RAD -       - ANG/DEG -
	 R(1,2)           =         2.250686	       1.191012
	 R(1,9)           =         4.774141	       2.526366
	 R(1,11)          =         2.910694	       1.540273
	 R(1,13)          =         2.080490	       1.100948
	 R(3,11)          =         2.524592	       1.335957
	 R(4,11)          =         2.509011	       1.327712
	 R(5,6)           =         2.066443	       1.093515
	 R(6,7)           =         2.065281	       1.092899
	 R(6,8)           =         2.056162	       1.088074
	 R(6,9)           =         2.686854	       1.421822
	 R(9,10)          =         1.816547	       0.961275
	 R(11,12)         =         2.533551	       1.340698
	 B(1,9,6)         =         2.360866	     135.267669
	 B(1,9,10)        =         1.692742	      96.986983
	 B(1,11,3)        =         1.941885	     111.261827
	 B(1,11,4)        =         1.961225	     112.369902
	 B(1,11,12)       =         1.900370	     108.883188
	 B(2,1,9)         =         1.783384	     102.180365
	 B(2,1,11)        =         2.108304	     120.796942
	 B(2,1,13)        =         2.177533	     124.763423
	 B(3,11,4)        =         1.897901	     108.741704
	 B(3,11,12)       =         1.873683	     107.354144
	 B(4,11,12)       =         1.885941	     108.056479
	 B(5,6,7)         =         1.915704	     109.761741
	 B(5,6,8)         =         1.897562	     108.722295
	 B(5,6,9)         =         1.943290	     111.342315
	 B(6,9,10)        =         1.907822	     109.310161
	 B(7,6,8)         =         1.900450	     108.887766
	 B(7,6,9)         =         1.941622	     111.246751
	 B(8,6,9)         =         1.863599	     106.776354
	 B(9,1,11)        =         1.480489	      84.825777
	 B(9,1,13)        =         1.490260	      85.385613
	 B(11,1,13)       =         1.995402	     114.328100
	 D(1,9,6,5)       =        -1.023074	     -58.617833
	 D(1,9,6,7)       =         3.117214	     178.603198
	 D(1,9,6,8)       =         1.045788	      59.919243
	 D(2,1,9,6)       =         2.366741	     135.604246
	 D(2,1,9,10)      =         0.156095	       8.943584
	 D(2,1,11,3)      =        -2.782911	    -159.449032
	 D(2,1,11,4)      =        -0.650008	     -37.242714
	 D(2,1,11,12)     =         1.438641	      82.428036
	 D(3,11,1,9)      =        -1.018245	     -58.341142
	 D(3,11,1,13)     =         0.422595	      24.212936
	 D(4,11,1,9)      =         1.114658	      63.865175
	 D(4,11,1,13)     =         2.555498	     146.419253
	 D(5,6,9,10)      =         1.114393	      63.850020
	 D(6,9,1,11)      =         0.264956	      15.180867
	 D(6,9,1,13)      =        -1.741822	     -99.799054
	 D(7,6,9,10)      =        -1.028504	     -58.928950
	 D(8,6,9,10)      =        -3.099930	    -177.612904
	 D(9,1,11,12)     =        -3.079879	    -176.464075
	 D(10,9,1,11)     =        -1.945689	    -111.479795
	 D(10,9,1,13)     =         2.330718	     133.540283
	 D(12,11,1,13)    =        -1.639039	     -93.909997

	Current energy   :      -567.2518436607

	Energy change for the previous step:
		Projected    :        -0.0000004424
		Actual       :        -0.0000008280

	Performing BFGS update.
	Previous computed or guess Hessian on step 1.
	Steps to be used in Hessian update: 40 39
	Taking RFO optimization step.
	Going to follow RFO solution 1.
	Using RFO vector 1.
	Norm of target step-size    0.00988
	Projected energy change by RFO approximation:        -0.0000001261

	Back-transformation to cartesian coordinates...
	Could not converge backtransformation.
	Using first guess instead.

	--- Internal Coordinate Step in ANG or DEG, aJ/ANG or AJ/DEG ---
	 ---------------------------------------------------------------------------
	   Coordinate                Previous        Force       Change         New 
	   ----------                --------       ------       ------       ------
	    1 R(1,2)          =      1.191012    -0.000270    -0.000017     1.190995
	    2 R(1,9)          =      2.526366     0.000103     0.000279     2.526645
	    3 R(1,11)         =      1.540273     0.000232     0.000070     1.540343
	    4 R(1,13)         =      1.100948    -0.000046    -0.000009     1.100939
	    5 R(3,11)         =      1.335957    -0.000048    -0.000046     1.335910
	    6 R(4,11)         =      1.327712    -0.000070     0.000048     1.327760
	    7 R(5,6)          =      1.093515     0.000048     0.000015     1.093529
	    8 R(6,7)          =      1.092899     0.000144     0.000034     1.092934
	    9 R(6,8)          =      1.088074     0.000132     0.000036     1.088110
	   10 R(6,9)          =      1.421822     0.000135     0.000044     1.421866
	   11 R(9,10)         =      0.961275     0.000123     0.000025     0.961300
	   12 R(11,12)        =      1.340698    -0.000135    -0.000024     1.340673
	   13 B(1,9,6)        =    135.267669     0.000000    -0.017387   135.250283
	   14 B(1,9,10)       =     96.986983    -0.000002    -0.080946    96.906037
	   15 B(1,11,3)       =    111.261827     0.000001     0.005528   111.267355
	   16 B(1,11,4)       =    112.369902     0.000001    -0.000959   112.368943
	   17 B(1,11,12)      =    108.883188    -0.000000     0.001150   108.884337
	   18 B(2,1,9)        =    102.180365    -0.000000     0.010350   102.190715
	   19 B(2,1,11)       =    120.796942    -0.000000    -0.000908   120.796034
	   20 B(2,1,13)       =    124.763423    -0.000000     0.002888   124.766311
	   21 B(3,11,4)       =    108.741704    -0.000001    -0.004415   108.737289
	   22 B(3,11,12)      =    107.354144    -0.000001     0.002644   107.356788
	   23 B(4,11,12)      =    108.056479    -0.000001    -0.004032   108.052447
	   24 B(5,6,7)        =    109.761741    -0.000001    -0.008014   109.753728
	   25 B(5,6,8)        =    108.722295     0.000000     0.009693   108.731988
	   26 B(5,6,9)        =    111.342315     0.000001     0.002596   111.344910
	   27 B(6,9,10)       =    109.310161     0.000002    -0.000078   109.310083
	   28 B(7,6,8)        =    108.887766     0.000000     0.003181   108.890947
	   29 B(7,6,9)        =    111.246751    -0.000001    -0.003612   111.243139
	   30 B(8,6,9)        =    106.776354     0.000000    -0.003232   106.773122
	   31 B(9,1,11)       =     84.825777     0.000001     0.014196    84.839973
	   32 B(9,1,13)       =     85.385613    -0.000001    -0.026104    85.359510
	   33 B(11,1,13)      =    114.328100     0.000000    -0.001889   114.326211
	   34 D(1,9,6,5)      =    -58.617833    -0.000000     0.157182   -58.460651
	   35 D(1,9,6,7)      =    178.603198     0.000000     0.168244   178.771441
	   36 D(1,9,6,8)      =     59.919243     0.000000     0.168375    60.087618
	   37 D(2,1,9,6)      =    135.604246     0.000000     0.120892   135.725138
	   38 D(2,1,9,10)     =      8.943584     0.000000     0.245756     9.189340
	   39 D(2,1,11,3)     =   -159.449032    -0.000000    -0.030088  -159.479120
	   40 D(2,1,11,4)     =    -37.242714    -0.000000    -0.032469   -37.275184
	   41 D(2,1,11,12)    =     82.428036    -0.000000    -0.037345    82.390690
	   42 D(3,11,1,9)     =    -58.341142     0.000000    -0.009688   -58.350830
	   43 D(3,11,1,13)    =     24.212936     0.000000    -0.031679    24.181257
	   44 D(4,11,1,9)     =     63.865175     0.000000    -0.012069    63.853106
	   45 D(4,11,1,13)    =    146.419253     0.000000    -0.034059   146.385194
	   46 D(5,6,9,10)     =     63.850020    -0.000000    -0.004510    63.845510
	   47 D(6,9,1,11)     =     15.180867     0.000000     0.118794    15.299661
	   48 D(6,9,1,13)     =    -99.799054     0.000000     0.118984   -99.680070
	   49 D(7,6,9,10)     =    -58.928950    -0.000000     0.006552   -58.922398
	   50 D(8,6,9,10)     =   -177.612904    -0.000000     0.006683  -177.606221
	   51 D(9,1,11,12)    =   -176.464075     0.000000    -0.016945  -176.481020
	   52 D(10,9,1,11)    =   -111.479795     0.000000     0.243658  -111.236138
	   53 D(10,9,1,13)    =    133.540283    -0.000000     0.243848   133.784131
	   54 D(12,11,1,13)   =    -93.909997     0.000000    -0.038936   -93.948932
	 ---------------------------------------------------------------------------
	Successfully symmetrized geometry.

  ==> Convergence Check <==

  Measures of convergence in internal coordinates in au.
  Criteria marked as inactive (o), active & met (*), and active & unmet ( ).
  ---------------------------------------------------------------------------------------------
   Step     Total Energy     Delta E     MAX Force     RMS Force      MAX Disp      RMS Disp   
  ---------------------------------------------------------------------------------------------
    Convergence Criteria    1.00e-06 *    3.00e-04 *             o    1.20e-03 *             o
  ---------------------------------------------------------------------------------------------
     41    -567.25184366   -8.28e-07 *    3.28e-05 *    1.15e-05 o    4.29e-03      1.34e-03 o  ~
  ---------------------------------------------------------------------------------------------


  **** Optimization is complete! (in 41 steps) ****

  ==> Optimization Summary <==

  Measures of convergence in internal coordinates in au.
  --------------------------------------------------------------------------------------------------------------- ~
   Step         Total Energy             Delta E       MAX Force       RMS Force        MAX Disp        RMS Disp  ~
  --------------------------------------------------------------------------------------------------------------- ~
      1    -567.245282763254   -567.245282763254      0.01083098      0.00271013      0.19098113      0.03050949  ~
      2    -567.247479274980     -0.002196511726      0.00500888      0.00122681      0.20804523      0.04351521  ~
      3    -567.248716607613     -0.001237332633      0.00222825      0.00074233      0.09189915      0.02098588  ~
      4    -567.248966447116     -0.000249839503      0.00127167      0.00038888      0.06557787      0.02300966  ~
      5    -567.249112623674     -0.000146176558      0.00120224      0.00033344      0.10367469      0.03423958  ~
      6    -567.249213991170     -0.000101367496      0.00195243      0.00060755      0.11120220      0.03687204  ~
      7    -567.249290322907     -0.000076331738      0.00407818      0.00103826      0.09220610      0.02869545  ~
      8    -567.249408323884     -0.000118000977      0.00297223      0.00082400      0.08540467      0.02891230  ~
      9    -567.249547724630     -0.000139400746      0.00203199      0.00055162      0.08960013      0.02832215  ~
     10    -567.249598323461     -0.000050598831      0.00163197      0.00051098      0.06147236      0.01911145  ~
     11    -567.249694288549     -0.000095965087      0.00082661      0.00030662      0.11559850      0.03398225  ~
     12    -567.249790358518     -0.000096069970      0.00108402      0.00036715      0.10900155      0.03330730  ~
     13    -567.249868122867     -0.000077764349      0.00203120      0.00055103      0.11244335      0.03511203  ~
     14    -567.249936925555     -0.000068802688      0.00344338      0.00084987      0.11546712      0.03504916  ~
     15    -567.250018317697     -0.000081392142      0.00398988      0.00098185      0.11214434      0.03398572  ~
     16    -567.250187360327     -0.000169042631      0.00220655      0.00057023      0.02493115      0.00860877  ~
     17    -567.250253474801     -0.000066114474      0.00079093      0.00025172      0.02391428      0.00850759  ~
     18    -567.250303780743     -0.000050305943      0.00089497      0.00026996      0.06724966      0.02661653  ~
     19    -567.250451946586     -0.000148165842      0.00208380      0.00039555      0.25805780      0.08594450  ~
     20    -567.250573797082     -0.000121850496      0.00675958      0.00166683      0.24967586      0.07364865  ~
     21    -567.250699953525     -0.000126156443      0.00418749      0.00102807      0.06567629      0.01905896  ~
     22    -567.250905346029     -0.000205392505      0.00254192      0.00070193      0.05773003      0.01916985  ~
     23    -567.251046516533     -0.000141170504      0.00117720      0.00035129      0.05736818      0.01915125  ~
     24    -567.251142535588     -0.000096019055      0.00051045      0.00022537      0.06023310      0.01914842  ~
     25    -567.251224501135     -0.000081965547      0.00059450      0.00016965      0.06270494      0.01914344  ~
     26    -567.251289771163     -0.000065270027      0.00043473      0.00013785      0.06171924      0.01879839  ~
     27    -567.251349406695     -0.000059635533      0.00041784      0.00011334      0.06394893      0.01889858  ~
     28    -567.251406611897     -0.000057205201      0.00045389      0.00012373      0.18439747      0.05448792  ~
     29    -567.251535233924     -0.000128622028      0.00412269      0.00091256      0.36324896      0.10850331  ~
     30    -567.250195043031      0.001340190893      0.01716867      0.00403451      0.09986271      0.03468227  ~
     31    -567.249539460735      0.000655582297      0.02109468      0.00507591      0.07653064      0.02461242  ~
     32    -567.251214722643     -0.001675261909      0.00975399      0.00231146      0.21868662      0.07616702  ~
     33    -567.251564950327     -0.000350227683      0.00392865      0.00111542      0.18153546      0.05785753  ~
     34    -567.251369208520      0.000195741806      0.00713707      0.00161096      0.11283546      0.03195426  ~
     35    -567.251723243654     -0.000354035134      0.00190273      0.00043210      0.11471500      0.03402441  ~
     36    -567.251798435468     -0.000075191814      0.00100944      0.00029430      0.05753342      0.01593607  ~
     37    -567.251828925237     -0.000030489769      0.00072759      0.00019860      0.02530172      0.00691708  ~
     38    -567.251837252148     -0.000008326911      0.00021016      0.00005673      0.00924917      0.00305132  ~
     39    -567.251839622789     -0.000002370641      0.00015224      0.00004839      0.01251729      0.00431187  ~
     40    -567.251842832716     -0.000003209927      0.00009239      0.00002253      0.00434398      0.00148995  ~
     41    -567.251843660673     -0.000000827957      0.00003275      0.00001149      0.00428926      0.00134432  ~
  --------------------------------------------------------------------------------------------------------------- ~

	Writing optimization data to binary file.
	Final energy is   -567.2518436606730
	Final (previous) structure:
	Cartesian Geometry (in Angstrom)
	    C    -0.6166306551  -1.0046290732  -0.6157232602
	    O    -1.7603892281  -0.8571345629  -0.9133322259
	    F     1.2679992198  -0.2971768530   0.6481198369
	    F    -0.5886987590   0.7642618957   0.9849402926
	    H     1.1269431929   2.5021485597  -0.4156724978
	    C     1.4494936051   1.9554709973  -1.3061101226
	    H     1.6640789949   2.6592427039  -2.1142485890
	    H     2.3573388914   1.4049267589  -1.0681548927
	    O     0.4792972501   0.9950046514  -1.7033510691
	    H    -0.3296327636   1.4471838552  -1.9587254896
	    C    -0.0614504612  -0.4196503467   0.6965327633
	    F    -0.3493981934  -1.2587850485   1.7017238629
	    H     0.1091018937  -1.6021541609  -1.1887519858
	Saving final (previous) structure.
	Removing binary optimization data file.
			--------------------------
			 OPTKING Finished Execution 
			--------------------------

    Final optimized geometry and variables:
    Molecular point group: c1
    Full point group: C1

    Geometry (in Angstrom), charge = 0, multiplicity = 1:

    C           -0.616630655103    -1.004629073155    -0.615723260208
    O           -1.760389228088    -0.857134562865    -0.913332225927
    F            1.267999219827    -0.297176852981     0.648119836864
    F           -0.588698758978     0.764261895695     0.984940292625
    H            1.126943192922     2.502148559693    -0.415672497809
    C            1.449493605135     1.955470997290    -1.306110122574
    H            1.664078994950     2.659242703861    -2.114248588983
    H            2.357338891397     1.404926758893    -1.068154892699
    O            0.479297250144     0.995004651378    -1.703351069143
    H           -0.329632763635     1.447183855155    -1.958725489605
    C           -0.061450461185    -0.419650346686     0.696532763312
    F           -0.349398193368    -1.258785048479     1.701723862868
    H            0.109101893675    -1.602154160875    -1.188751985837

	Removing binary optimization data file.
	Cleaning optimization helper files.

    Psi4 stopped on: Tuesday, 19 March 2019 01:21PM
    Psi4 wall time for execution: 0:16:27.48

*** Psi4 exiting successfully. Buy a developer a beer!
