[Molden Format]
[Title]
CLPOs

[Atoms] AU
C    1   6         -3.7553645693        -0.3802317463         0.6972075568 
O    2   8         -4.1311070541        -0.1345006235         2.9220111589 
O    3   8         -5.1315052188        -0.2771773251        -1.3537360694 
N    4   7         -1.1745516262        -0.8503183596        -0.5626546186 
H    5   1         -3.3700445072        -0.4802286553        -2.3890575586 
H    6   1         -0.6411331950        -2.7017899622        -0.3804196881 
C    7   6          0.8986258630         0.8146169523         0.2310060088 
H    8   1          0.7398376023         1.1165328156         2.2867638997 
C    9   6          3.3832573462        -0.5841021048        -0.1750220988 
O   10   8          3.5438090207        -2.8126501736        -0.6940661811 
O   11   8          5.4084620642         0.9178555304         0.1858667666 
H   12   1          6.9111568784        -0.1135668017        -0.0195620957 
C   13   6          0.7690480180         3.3848467622        -1.1066467649 
H   14   1         -1.0595315840         4.2777380646        -0.7304942313 
H   15   1          2.2563381748         4.6380160509        -0.4116341148 
H   16   1          0.9822579530         3.1631763602        -3.1535144202 
[GTO]
  1 0 
s   6 1.0  
     3047.5249000000         0.0018347000 
      457.3695100000         0.0140373000 
      103.9486900000         0.0688426000 
       29.2101550000         0.2321844000 
        9.2866630000         0.4679413000 
        3.1639270000         0.3623120000 
s   3 1.0  
        7.8682724000        -0.1193324000 
        1.8812885000        -0.1608542000 
        0.5442493000         1.1434564000 
p   3 1.0  
        7.8682724000         0.0689991000 
        1.8812885000         0.3164240000 
        0.5442493000         0.7443083000 
s   1 1.0  
        0.1687144000         1.0000000000 
p   1 1.0  
        0.1687144000         1.0000000000 
d   1 1.0  
        0.8000000000         1.0000000000 
s2   1 1.0  
        0.8000000000         1.0000000000 
s   1 1.0  
        0.0438000000         1.0000000000 
p   1 1.0  
        0.0438000000         1.0000000000 

  2 0 
s   6 1.0  
     5484.6717000000         0.0018311000 
      825.2349500000         0.0139501000 
      188.0469600000         0.0684451000 
       52.9645000000         0.2327143000 
       16.8975700000         0.4701930000 
        5.7996353000         0.3585209000 
s   3 1.0  
       15.5396160000        -0.1107775000 
        3.5999336000        -0.1480263000 
        1.0137618000         1.1307670000 
p   3 1.0  
       15.5396160000         0.0708743000 
        3.5999336000         0.3397528000 
        1.0137618000         0.7271586000 
s   1 1.0  
        0.2700058000         1.0000000000 
p   1 1.0  
        0.2700058000         1.0000000000 
d   1 1.0  
        0.8000000000         1.0000000000 
s2   1 1.0  
        0.8000000000         1.0000000000 
s   1 1.0  
        0.0845000000         1.0000000000 
p   1 1.0  
        0.0845000000         1.0000000000 

  3 0 
s   6 1.0  
     5484.6717000000         0.0018311000 
      825.2349500000         0.0139501000 
      188.0469600000         0.0684451000 
       52.9645000000         0.2327143000 
       16.8975700000         0.4701930000 
        5.7996353000         0.3585209000 
s   3 1.0  
       15.5396160000        -0.1107775000 
        3.5999336000        -0.1480263000 
        1.0137618000         1.1307670000 
p   3 1.0  
       15.5396160000         0.0708743000 
        3.5999336000         0.3397528000 
        1.0137618000         0.7271586000 
s   1 1.0  
        0.2700058000         1.0000000000 
p   1 1.0  
        0.2700058000         1.0000000000 
d   1 1.0  
        0.8000000000         1.0000000000 
s2   1 1.0  
        0.8000000000         1.0000000000 
s   1 1.0  
        0.0845000000         1.0000000000 
p   1 1.0  
        0.0845000000         1.0000000000 

  4 0 
s   6 1.0  
     4173.5110000000         0.0018348000 
      627.4579000000         0.0139950000 
      142.9021000000         0.0685870000 
       40.2343300000         0.2322410000 
       12.8202100000         0.4690700000 
        4.3904370000         0.3604550000 
s   3 1.0  
       11.6263580000        -0.1149610000 
        2.7162800000        -0.1691180000 
        0.7722180000         1.1458520000 
p   3 1.0  
       11.6263580000         0.0675800000 
        2.7162800000         0.3239070000 
        0.7722180000         0.7408950000 
s   1 1.0  
        0.2120313000         1.0000000000 
p   1 1.0  
        0.2120313000         1.0000000000 
d   1 1.0  
        0.8000000000         1.0000000000 
s2   1 1.0  
        0.8000000000         1.0000000000 
s   1 1.0  
        0.0639000000         1.0000000000 
p   1 1.0  
        0.0639000000         1.0000000000 

  5 0 
s   3 1.0  
       18.7311370000         0.0334946000 
        2.8253937000         0.2347269500 
        0.6401217000         0.8137573300 
s   1 1.0  
        0.1612778000         1.0000000000 

  6 0 
s   3 1.0  
       18.7311370000         0.0334946000 
        2.8253937000         0.2347269500 
        0.6401217000         0.8137573300 
s   1 1.0  
        0.1612778000         1.0000000000 

  7 0 
s   6 1.0  
     3047.5249000000         0.0018347000 
      457.3695100000         0.0140373000 
      103.9486900000         0.0688426000 
       29.2101550000         0.2321844000 
        9.2866630000         0.4679413000 
        3.1639270000         0.3623120000 
s   3 1.0  
        7.8682724000        -0.1193324000 
        1.8812885000        -0.1608542000 
        0.5442493000         1.1434564000 
p   3 1.0  
        7.8682724000         0.0689991000 
        1.8812885000         0.3164240000 
        0.5442493000         0.7443083000 
s   1 1.0  
        0.1687144000         1.0000000000 
p   1 1.0  
        0.1687144000         1.0000000000 
d   1 1.0  
        0.8000000000         1.0000000000 
s2   1 1.0  
        0.8000000000         1.0000000000 
s   1 1.0  
        0.0438000000         1.0000000000 
p   1 1.0  
        0.0438000000         1.0000000000 

  8 0 
s   3 1.0  
       18.7311370000         0.0334946000 
        2.8253937000         0.2347269500 
        0.6401217000         0.8137573300 
s   1 1.0  
        0.1612778000         1.0000000000 

  9 0 
s   6 1.0  
     3047.5249000000         0.0018347000 
      457.3695100000         0.0140373000 
      103.9486900000         0.0688426000 
       29.2101550000         0.2321844000 
        9.2866630000         0.4679413000 
        3.1639270000         0.3623120000 
s   3 1.0  
        7.8682724000        -0.1193324000 
        1.8812885000        -0.1608542000 
        0.5442493000         1.1434564000 
p   3 1.0  
        7.8682724000         0.0689991000 
        1.8812885000         0.3164240000 
        0.5442493000         0.7443083000 
s   1 1.0  
        0.1687144000         1.0000000000 
p   1 1.0  
        0.1687144000         1.0000000000 
d   1 1.0  
        0.8000000000         1.0000000000 
s2   1 1.0  
        0.8000000000         1.0000000000 
s   1 1.0  
        0.0438000000         1.0000000000 
p   1 1.0  
        0.0438000000         1.0000000000 

 10 0 
s   6 1.0  
     5484.6717000000         0.0018311000 
      825.2349500000         0.0139501000 
      188.0469600000         0.0684451000 
       52.9645000000         0.2327143000 
       16.8975700000         0.4701930000 
        5.7996353000         0.3585209000 
s   3 1.0  
       15.5396160000        -0.1107775000 
        3.5999336000        -0.1480263000 
        1.0137618000         1.1307670000 
p   3 1.0  
       15.5396160000         0.0708743000 
        3.5999336000         0.3397528000 
        1.0137618000         0.7271586000 
s   1 1.0  
        0.2700058000         1.0000000000 
p   1 1.0  
        0.2700058000         1.0000000000 
d   1 1.0  
        0.8000000000         1.0000000000 
s2   1 1.0  
        0.8000000000         1.0000000000 
s   1 1.0  
        0.0845000000         1.0000000000 
p   1 1.0  
        0.0845000000         1.0000000000 

 11 0 
s   6 1.0  
     5484.6717000000         0.0018311000 
      825.2349500000         0.0139501000 
      188.0469600000         0.0684451000 
       52.9645000000         0.2327143000 
       16.8975700000         0.4701930000 
        5.7996353000         0.3585209000 
s   3 1.0  
       15.5396160000        -0.1107775000 
        3.5999336000        -0.1480263000 
        1.0137618000         1.1307670000 
p   3 1.0  
       15.5396160000         0.0708743000 
        3.5999336000         0.3397528000 
        1.0137618000         0.7271586000 
s   1 1.0  
        0.2700058000         1.0000000000 
p   1 1.0  
        0.2700058000         1.0000000000 
d   1 1.0  
        0.8000000000         1.0000000000 
s2   1 1.0  
        0.8000000000         1.0000000000 
s   1 1.0  
        0.0845000000         1.0000000000 
p   1 1.0  
        0.0845000000         1.0000000000 

 12 0 
s   3 1.0  
       18.7311370000         0.0334946000 
        2.8253937000         0.2347269500 
        0.6401217000         0.8137573300 
s   1 1.0  
        0.1612778000         1.0000000000 

 13 0 
s   6 1.0  
     3047.5249000000         0.0018347000 
      457.3695100000         0.0140373000 
      103.9486900000         0.0688426000 
       29.2101550000         0.2321844000 
        9.2866630000         0.4679413000 
        3.1639270000         0.3623120000 
s   3 1.0  
        7.8682724000        -0.1193324000 
        1.8812885000        -0.1608542000 
        0.5442493000         1.1434564000 
p   3 1.0  
        7.8682724000         0.0689991000 
        1.8812885000         0.3164240000 
        0.5442493000         0.7443083000 
s   1 1.0  
        0.1687144000         1.0000000000 
p   1 1.0  
        0.1687144000         1.0000000000 
d   1 1.0  
        0.8000000000         1.0000000000 
s2   1 1.0  
        0.8000000000         1.0000000000 
s   1 1.0  
        0.0438000000         1.0000000000 
p   1 1.0  
        0.0438000000         1.0000000000 

 14 0 
s   3 1.0  
       18.7311370000         0.0334946000 
        2.8253937000         0.2347269500 
        0.6401217000         0.8137573300 
s   1 1.0  
        0.1612778000         1.0000000000 

 15 0 
s   3 1.0  
       18.7311370000         0.0334946000 
        2.8253937000         0.2347269500 
        0.6401217000         0.8137573300 
s   1 1.0  
        0.1612778000         1.0000000000 

 16 0 
s   3 1.0  
       18.7311370000         0.0334946000 
        2.8253937000         0.2347269500 
        0.6401217000         0.8137573300 
s   1 1.0  
        0.1612778000         1.0000000000 

[5D]
[9G]
[MO]
 Sym=     1a
 Ene=  0.00000000000000E+00
 Spin= Beta
 Occup= 0.000457
  1      -0.397563221478
  2       1.164480740827
  3       0.034695202093
  4      -0.018895634159
  5       0.044549093861
  6       4.962780902290
  7       1.102747317107
  8      -0.022264045404
  9       0.377940847584
 10      -0.178087607647
 11      -0.182136033402
 12       0.035033445927
 13       0.249453713290
 14      -0.050129038415
 15      -3.105322869367
 16      -4.278639293441
 17       1.209740935394
 18      -0.850064095258
 19       1.620568037825
 20       0.057940501436
 21       0.303251102744
 22       0.068929042776
 23      -0.023098661078
 24      -0.194367750764
 25      -1.675710361192
 26      -0.169974639509
 27       0.012972053643
 28       0.513687311564
 29       0.079264333064
 30      -0.029723700758
 31       0.020718153661
 32       0.003601886765
 33      -0.005913025816
 34       0.448488428346
 35      -0.181460079616
 36      -0.684337653395
 37       0.330192027333
 38       0.005480220801
 39       0.081001265836
 40       0.224244612665
 41       0.032994240542
 42       0.003543452041
 43       0.052922027770
 44      -1.705512474499
 45       0.177572098215
 46      -0.059149693451
 47       0.122363696273
 48       0.077198081194
 49       0.169290710699
 50      -0.014874499045
 51       0.071624613501
 52      -0.015004945858
 53       0.691653005561
 54       2.432374572582
 55      -1.022590792568
 56       0.315758667584
 57      -0.013780716492
 58       0.054524327487
 59       0.104756094465
 60       0.002071698408
 61       0.013135000988
 62       0.014668623026
 63      -1.371198735335
 64       0.840804288523
 65      -0.032734877622
 66      -0.568799370758
 67      -0.014618940136
 68       0.025391185040
 69      -0.021629078725
 70       0.008203712466
 71       0.013291090611
 72       0.253400751837
 73      -2.002933220617
 74      -1.054742025902
 75      -0.694195106619
 76      -0.573276800359
 77      -0.039682217900
 78       0.489646080766
 79       0.084822420204
 80       0.077285011261
 81       0.019726492114
 82       0.069991467578
 83      -0.068283664897
 84       0.044608285965
 85      -0.005564424558
 86      -0.153934771765
 87       0.366240002059
 88      -0.624972124459
 89       0.335653170117
 90      -0.012610554655
 91      -0.017034291096
 92       0.004355700116
 93       0.037459814563
 94      -0.016404104958
 95       0.074416444537
 96       1.550110883350
 97      -2.055930416862
 98      -0.406045925220
 99      -0.603381018700
100      -0.014673950506
101       0.171478537854
102       0.003707593739
103       0.073816176240
104       0.004913805470
105       0.004824569235
106      -0.015342092630
107      -0.171907081898
108       0.201933641409
109      -0.307651988217
110      -0.137383549773
111       0.012938551183
112       0.012974623227
113      -0.007717052504
114      -0.025415158904
115      -0.002725381028
116      -0.037559856726
117       1.135168614375
118       0.240350070019
119       0.656349948223
120       0.234149233968
121       0.013153550397
122       0.051965469253
123       0.001636557387
124       0.004266191540
125      -0.002292312180
126      -0.338450086273
127      -0.033665872736
128      -0.079236798396
129      -0.004698709928
130       0.010261026441
131      -0.002739531097
132      -0.002321470939
133       0.004272539301
134      -0.001220560692
135       0.079119017269
136       0.336221711000
137       0.016359834717
138       0.013098265988
139       0.027943161980
140      -0.001931319828
141      -0.011839052789
142      -0.002433194219
143       0.002685247039
144      -0.002763867580
145       0.081529181157
146      -0.044542232154
147      -0.005515437052
148       0.012414010416
149      -0.000763140426
150      -0.002506534968
151      -0.004234389757
152       0.016846832500
153       0.003187611216
154      -0.005745561429
155      -0.154677404028
156      -0.169384451438
157       0.195984946954
158       0.067753795464
159      -0.011389188988
160       0.096883758914
161      -0.019143949462
162      -0.125892638542
163      -0.011117325707
164       0.009833297217
165       0.034656217628
166       0.877891735914
167      -0.075604010719
168      -0.554039410375
169      -0.000145296285
170       0.000614400377
171      -0.014493850135
172      -0.020982110657
173      -0.022260239065
174       0.019396023104
175      -0.020428422871
176       0.297325834941
177      -0.308862705519
178      -0.006355218892
179       0.081295979555
180      -0.003462692043
181       0.025114471938
182      -0.005296305267
183       0.064986644623
184      -0.029400989764
185      -0.245298339296
 Sym=     1a
 Ene=  1.00000000000000E+00
 Spin= Beta
 Occup= 0.005958
  1      -0.039134328288
  2      -1.054441492465
  3      -0.259802753133
  4       0.266525530209
  5       0.069637030947
  6       2.499737586840
  7       1.455932446431
  8      -0.691464364725
  9      -1.320650612967
 10      -0.409847908363
 11       0.002622169441
 12       0.144721358070
 13      -0.132893867146
 14      -0.766852148558
 15       0.047962430942
 16       2.049001699183
 17       0.008962556856
 18       0.193790589399
 19      -0.340300142410
 20      -0.022948241058
 21       0.098998279478
 22      -0.040729926843
 23      -0.009018746347
 24      -0.108621390711
 25       0.524310461408
 26      -0.144399946412
 27      -0.011007346608
 28      -0.137888583098
 29       0.060720616142
 30      -0.046021833831
 31       0.115732772347
 32       0.014850414670
 33       0.024896870312
 34      -0.037748945450
 35      -0.167481842376
 36       0.063914212189
 37      -0.019056163512
 38       0.050218162835
 39      -0.010354065598
 40      -0.051809909097
 41      -0.005689738657
 42       0.018456852048
 43       0.038438735921
 44      -0.130198538284
 45      -0.259924621989
 46       0.007779856105
 47      -0.035037292697
 48       0.011865348595
 49       0.051058632784
 50      -0.071625592190
 51       0.055668250046
 52      -0.028820456894
 53      -0.054764782963
 54      -0.836740853823
 55       0.053690689566
 56      -0.048505497857
 57      -0.035937467112
 58       0.047535424102
 59      -0.055613760635
 60       0.105060082974
 61      -0.006819062482
 62      -0.039085957162
 63      -1.284318083747
 64       0.921853587121
 65       0.327335043627
 66      -0.410306463033
 67       0.006327168422
 68       0.048505459753
 69       0.029148949373
 70      -0.035904081588
 71      -0.025576783196
 72       0.125603820613
 73      -0.779651283339
 74       0.910704490472
 75       0.096332873927
 76      -0.082758996668
 77      -0.065977815539
 78       0.199002195650
 79       0.068323521337
 80       0.240974249918
 81       0.013908609667
 82       0.059907101184
 83       0.027366087541
 84       0.030537498196
 85      -0.009598389982
 86      -0.455732415186
 87       0.151609213644
 88      -0.038083428948
 89       0.290507019518
 90       0.007669310737
 91      -0.007530765412
 92      -0.003179844757
 93      -0.003458090599
 94      -0.001081418681
 95      -0.005365615768
 96      -0.652773693366
 97       0.666951870312
 98       0.177955119966
 99       0.107319938338
100      -0.021208251999
101       0.002663254802
102       0.005161851508
103       0.015664828642
104      -0.008459875057
105      -0.008447859497
106      -0.007210049073
107      -0.008548957985
108       0.109171308784
109       0.120581246335
110      -0.021515497408
111      -0.004092015593
112       0.005728647789
113      -0.003319303371
114      -0.000099737115
115       0.003897875993
116       0.025501072271
117      -0.389587046607
118      -0.044146523765
119      -0.147445878742
120      -0.038439925189
121      -0.000425855356
122      -0.000121315634
123      -0.009475993839
124      -0.003689106097
125      -0.003381157038
126       0.059466502792
127       0.009382005992
128      -0.005147275102
129       0.019801823550
130       0.009775379603
131      -0.001826717866
132      -0.000288601781
133      -0.002175308964
134      -0.000307543255
135      -0.002934384369
136      -0.131623711825
137       0.058048524504
138      -0.006275077772
139       0.017312229989
140       0.001963406233
141       0.014359795858
142      -0.000943423511
143      -0.003089247136
144      -0.001134429071
145      -0.083613489791
146       0.048849456125
147       0.029027233443
148       0.011909733174
149       0.001579124108
150      -0.001393599142
151      -0.002159898980
152      -0.003903851611
153      -0.006028324471
154       0.005738720982
155      -0.035417239996
156       0.078526633394
157      -0.048164105565
158      -0.015384166974
159       0.003440865122
160      -0.055402121798
161      -0.002524586529
162       0.010005117109
163      -0.012008060350
164      -0.037509532745
165       0.007496853795
166       0.229670504384
167       0.011917032973
168      -0.031349063005
169       0.040014111501
170      -0.003368668932
171       0.002185832925
172       0.002000676853
173      -0.001825462586
174      -0.000072360350
175       0.001311689273
176      -0.127117999562
177       0.055335470679
178       0.013805158713
179      -0.044226087601
180       0.005093168364
181      -0.001178062955
182      -0.017574777834
183      -0.023483015926
184      -0.006925022373
185       0.048855068241
 Sym=     1a
 Ene=  2.00000000000000E+00
 Spin= Beta
 Occup= 0.000178
  1      -0.112960819665
  2       0.183921167395
  3       0.023168016435
  4       0.026632116462
  5      -0.202461427482
  6       1.738563652110
  7      -0.077626448170
  8      -0.176551822172
  9      -1.247400127532
 10       0.028105496666
 11       0.051949314563
 12      -0.057952032225
 13       0.033819813424
 14      -0.033540642240
 15      -0.749935834954
 16      -2.888771459104
 17      -1.651537969269
 18      -0.303987989400
 19      -5.845149456106
 20       0.025813648668
 21      -0.005701106651
 22      -0.004889400009
 23       0.000448600928
 24      -0.000750313220
 25      -0.200426385797
 26       0.168761932463
 27       0.046368004070
 28      -0.439825718141
 29       0.056450596415
 30      -0.017313644033
 31      -0.000472265323
 32      -0.020265941388
 33      -0.002343993531
 34       0.211611976629
 35       3.395617146898
 36      -0.436338678589
 37      -0.294497675858
 38       1.249094346190
 39      -0.026208051908
 40       0.029211274060
 41       0.093805669134
 42       0.002627269633
 43       0.036857376792
 44      -0.198988123621
 45      -0.667297402880
 46       0.019951161293
 47      -0.488982182772
 48       0.010196994238
 49      -0.021459656976
 50       0.005212447514
 51      -0.019698123267
 52      -0.003995015226
 53      -0.217173564388
 54      -2.943290839219
 55       0.431561819156
 56       0.113706890205
 57       1.016383058816
 58       0.003493705209
 59       0.037837746888
 60      -0.041401903053
 61       0.031445789593
 62       0.008336025462
 63      -0.494411932017
 64       0.479547718787
 65      -0.305675629534
 66      -0.100454333955
 67       0.026211416327
 68      -0.017741879096
 69       0.011051010600
 70      -0.004452216077
 71      -0.003293136719
 72      -0.001728511329
 73      -1.885267733750
 74       1.871118602819
 75      -0.495081456728
 76       1.893261014695
 77      -0.006779979786
 78       0.907434094665
 79       0.029778969402
 80      -0.561687823542
 81       0.007434070593
 82      -0.059989714517
 83       0.011775850533
 84      -0.041696361105
 85       0.032777135873
 86       0.024929477652
 87      -0.256147314417
 88       0.446663933269
 89      -0.239121199859
 90      -0.014620505278
 91       0.014565982822
 92      -0.029809874016
 93      -0.004411055774
 94      -0.004884494283
 95       0.079023097698
 96       0.361469613998
 97      -4.609288237040
 98      -0.422349005809
 99       1.474040385536
100       0.113281488880
101      -0.624718475294
102       0.003680346142
103       0.068493987217
104      -0.017584985689
105      -0.006345901198
106       0.038425328245
107      -0.010183356848
108       0.271805294264
109       0.386906738090
110       0.010973046103
111       0.001678266116
112      -0.005135211518
113       0.006731963173
114       0.015568419571
115       0.020604907145
116       0.000299201725
117       3.373432953481
118      -0.280633151853
119       0.685709592351
120      -0.114948681126
121      -0.011825499703
122      -0.047111896404
123       0.002737818369
124       0.003968415766
125       0.000557073944
126       0.388573147277
127      -0.064283768421
128       0.043402316261
129       0.037956009406
130       0.004005910465
131       0.011796916293
132       0.001823348945
133      -0.001039118115
134      -0.010570220661
135      -0.068234890984
136      -0.544739792267
137       0.346195884959
138      -0.009389076385
139      -0.155105407663
140       0.015547848946
141       0.077032193474
142      -0.015463453998
143      -0.000171476058
144       0.001998627896
145      -0.463668432325
146       0.163358157900
147       0.045938788510
148       0.018936883836
149       0.005241491345
150      -0.004622603404
151      -0.009753486748
152      -0.011097445204
153      -0.014324034884
154       0.089433700088
155       0.248315371829
156      -0.109645519451
157       0.097863265359
158       0.030005701570
159       0.000640318191
160      -0.025652610298
161       0.016293056789
162       0.086027898656
163      -0.020662120059
164       0.006837887666
165      -0.005614155417
166      -0.694754894311
167       0.081102571755
168       0.312262854825
169      -0.096209097483
170       0.008507438179
171       0.007186361247
172       0.023120129762
173       0.012351115886
174       0.007583249323
175       0.027209232691
176       0.256882666505
177       0.764653127415
178      -0.096151062976
179       0.180903622178
180       0.078716257969
181      -0.229225717057
182       0.015975415989
183      -0.081975384875
184      -0.027724248810
185       0.256090330019
 Sym=     1a
 Ene=  3.00000000000000E+00
 Spin= Beta
 Occup= 2.000735
  1      -0.044084124589
  2       0.206092360149
  3      -0.232972808365
  4       0.022895994315
  5      -0.232842199398
  6       0.103767031828
  7      -0.003290213508
  8       0.012409456879
  9       0.100634397541
 10       0.017568743816
 11       0.064077842236
 12      -0.005721429660
 13       0.004280740960
 14       0.001127498665
 15      -0.006977566005
 16       0.039154803405
 17       0.021924621564
 18      -0.001748611044
 19       0.015309933298
 20       0.010211400508
 21       0.001447534809
 22       0.011675999737
 23      -0.000398570911
 24       0.026887159164
 25      -0.137931969810
 26      -0.015631470417
 27       0.005271543998
 28       0.051104888371
 29       0.006044586730
 30       0.011847622059
 31      -0.000481797903
 32      -0.001896596866
 33       0.001860848357
 34       0.025147597670
 35      -0.034191359046
 36      -0.005172016586
 37       0.003371569632
 38      -0.000139120925
 39      -0.050556432923
 40       0.255882286407
 41       0.177004550026
 42      -0.012966860928
 43       0.371786587198
 44       0.247643540361
 45       0.111399989484
 46      -0.010082231568
 47       0.204759228012
 48       0.005879668125
 49       0.039671229349
 50      -0.004150915016
 51       0.008236092251
 52      -0.002567533614
 53       0.002733933448
 54       0.020817347042
 55       0.013109743479
 56      -0.004038873347
 57       0.003039642994
 58       0.003144431441
 59      -0.005784660854
 60       0.040306599262
 61      -0.005910976117
 62      -0.001494084783
 63       0.016758519836
 64      -0.028915781689
 65       0.011194747336
 66      -0.034900181033
 67      -0.006356387153
 68      -0.003774777040
 69       0.000362799716
 70       0.009947174990
 71      -0.004348580773
 72       0.000836004666
 73      -0.044525364800
 74       0.003120915023
 75       0.002595572075
 76      -0.017112220302
 77      -0.011049398649
 78      -0.099464218004
 79       0.003206958447
 80       0.009857225745
 81       0.000085027273
 82       0.003898525276
 83      -0.007493039088
 84       0.002502758548
 85       0.004856436295
 86       0.017419013548
 87       0.040472069760
 88      -0.029769963619
 89      -0.001890180750
 90      -0.001020609186
 91      -0.000402469786
 92       0.000904008941
 93      -0.000162882307
 94       0.000533336959
 95       0.001380093303
 96      -0.004679630500
 97       0.012751171583
 98       0.001274227227
 99      -0.009428279225
100       0.000201664050
101       0.002932886202
102      -0.000304854160
103      -0.001961413485
104       0.005479149652
105       0.000872139836
106       0.000135543395
107      -0.023977198198
108      -0.001734805085
109      -0.033857173460
110      -0.005957810621
111       0.000206129345
112       0.000363815404
113      -0.000112015647
114      -0.000488847290
115      -0.000338807431
116      -0.004655924312
117      -0.013273920626
118       0.004245327473
119       0.002276456531
120       0.002841055146
121       0.000470186042
122      -0.001895111454
123       0.001721032407
124      -0.000323104564
125      -0.000259708812
126      -0.012312145069
127      -0.001112386430
128      -0.002782032173
129      -0.000858297003
130      -0.000557078908
131       0.000000299888
132       0.000305142366
133      -0.000025814509
134      -0.000123314141
135       0.001355160390
136      -0.001193311272
137       0.000487194237
138      -0.001742799342
139       0.001136156702
140      -0.000700146793
141      -0.001067893059
142      -0.000067179024
143      -0.000120395696
144      -0.000703623202
145       0.019543707841
146      -0.007645742075
147      -0.001561452226
148      -0.000661386112
149      -0.000034808133
150       0.000080480400
151      -0.000162351828
152       0.000717146212
153       0.000577897512
154      -0.002846097154
155      -0.000552843358
156      -0.000705244382
157       0.000057458595
158      -0.000170051501
159       0.000341791368
160       0.001368516328
161      -0.000716752532
162      -0.002390854247
163      -0.002332883715
164      -0.001318092019
165      -0.001039520927
166       0.025495916510
167      -0.007881951091
168      -0.006254666284
169       0.009594207344
170       0.000118929364
171      -0.000453159523
172      -0.000820891111
173       0.000105228347
174       0.000564567717
175      -0.000734002339
176      -0.000056764615
177      -0.003808976576
178       0.000258277438
179      -0.001173601961
180      -0.002009323423
181      -0.005104797715
182      -0.000163683735
183      -0.000180538512
184       0.001577243602
185      -0.004168315881
 Sym=     1a
 Ene=  4.00000000000000E+00
 Spin= Beta
 Occup= 0.117697
  1       0.086250483038
  2      -0.493603324352
  3       0.548260306838
  4      -0.045692120262
  5       0.632204203770
  6      -0.393627970223
  7       0.086269206175
  8      -0.025870243411
  9       0.004993066894
 10      -0.035330785641
 11      -0.104131970276
 12       0.009015422654
 13      -0.000465411766
 14      -0.004451339822
 15      -0.154396652526
 16       0.072446728570