[Molden Format]
[Atoms] (AU)
C    1    6        -3.755364569349      -0.380231746339       0.697207556798
O    2    8        -4.131107054083      -0.134500623505       2.922011158886
O    3    8        -5.131505218795      -0.277177325064      -1.353736069382
N    4    7        -1.174551626232      -0.850318359576      -0.562654618558
H    5    1        -3.370044507166      -0.480228655348      -2.389057558572
H    6    1        -0.641133195037      -2.701789962161      -0.380419688078
C    7    6         0.898625862951       0.814616952332       0.231006008801
H    8    1         0.739837602332       1.116532815580       2.286763899704
C    9    6         3.383257346240      -0.584102104765      -0.175022098790
O   10    8         3.543809020652      -2.812650173578      -0.694066181098
O   11    8         5.408462064232       0.917855530366       0.185866766621
H   12    1         6.911156878401      -0.113566801687      -0.019562095712
C   13    6         0.769048018006       3.384846762166      -1.106646764868
H   14    1        -1.059531584000       4.277738064601      -0.730494231301
H   15    1         2.256338174765       4.638016050885      -0.411634114839
H   16    1         0.982257953034       3.163176360224      -3.153514420166
[GTO]
  1 0
 s    6  1.00
     3047.5249000000         0.0018347000
      457.3695100000         0.0140373000
      103.9486900000         0.0688426000
       29.2101550000         0.2321844000
        9.2866630000         0.4679413000
        3.1639270000         0.3623120000
 s    3  1.00
        7.8682724000        -0.1193324000
        1.8812885000        -0.1608542000
        0.5442493000         1.1434564000
 p    3  1.00
        7.8682724000         0.0689991000
        1.8812885000         0.3164240000
        0.5442493000         0.7443083000
 s    1  1.00
        0.1687144000         1.0000000000
 p    1  1.00
        0.1687144000         1.0000000000
 d    1  1.00
        0.8000000000         1.0000000000
 s    1  1.00
        0.0438000000         1.0000000000
 p    1  1.00
        0.0438000000         1.0000000000

  2 0
 s    6  1.00
     5484.6717000000         0.0018311000
      825.2349500000         0.0139501000
      188.0469600000         0.0684451000
       52.9645000000         0.2327143000
       16.8975700000         0.4701930000
        5.7996353000         0.3585209000
 s    3  1.00
       15.5396160000        -0.1107775000
        3.5999336000        -0.1480263000
        1.0137618000         1.1307670000
 p    3  1.00
       15.5396160000         0.0708743000
        3.5999336000         0.3397528000
        1.0137618000         0.7271586000
 s    1  1.00
        0.2700058000         1.0000000000
 p    1  1.00
        0.2700058000         1.0000000000
 d    1  1.00
        0.8000000000         1.0000000000
 s    1  1.00
        0.0845000000         1.0000000000
 p    1  1.00
        0.0845000000         1.0000000000

  3 0
 s    6  1.00
     5484.6717000000         0.0018311000
      825.2349500000         0.0139501000
      188.0469600000         0.0684451000
       52.9645000000         0.2327143000
       16.8975700000         0.4701930000
        5.7996353000         0.3585209000
 s    3  1.00
       15.5396160000        -0.1107775000
        3.5999336000        -0.1480263000
        1.0137618000         1.1307670000
 p    3  1.00
       15.5396160000         0.0708743000
        3.5999336000         0.3397528000
        1.0137618000         0.7271586000
 s    1  1.00
        0.2700058000         1.0000000000
 p    1  1.00
        0.2700058000         1.0000000000
 d    1  1.00
        0.8000000000         1.0000000000
 s    1  1.00
        0.0845000000         1.0000000000
 p    1  1.00
        0.0845000000         1.0000000000

  4 0
 s    6  1.00
     4173.5110000000         0.0018348000
      627.4579000000         0.0139950000
      142.9021000000         0.0685870000
       40.2343300000         0.2322410000
       12.8202100000         0.4690700000
        4.3904370000         0.3604550000
 s    3  1.00
       11.6263580000        -0.1149610000
        2.7162800000        -0.1691180000
        0.7722180000         1.1458520000
 p    3  1.00
       11.6263580000         0.0675800000
        2.7162800000         0.3239070000
        0.7722180000         0.7408950000
 s    1  1.00
        0.2120313000         1.0000000000
 p    1  1.00
        0.2120313000         1.0000000000
 d    1  1.00
        0.8000000000         1.0000000000
 s    1  1.00
        0.0639000000         1.0000000000
 p    1  1.00
        0.0639000000         1.0000000000

  5 0
 s    3  1.00
       18.7311370000         0.0334946000
        2.8253937000         0.2347269500
        0.6401217000         0.8137573300
 s    1  1.00
        0.1612778000         1.0000000000

  6 0
 s    3  1.00
       18.7311370000         0.0334946000
        2.8253937000         0.2347269500
        0.6401217000         0.8137573300
 s    1  1.00
        0.1612778000         1.0000000000

  7 0
 s    6  1.00
     3047.5249000000         0.0018347000
      457.3695100000         0.0140373000
      103.9486900000         0.0688426000
       29.2101550000         0.2321844000
        9.2866630000         0.4679413000
        3.1639270000         0.3623120000
 s    3  1.00
        7.8682724000        -0.1193324000
        1.8812885000        -0.1608542000
        0.5442493000         1.1434564000
 p    3  1.00
        7.8682724000         0.0689991000
        1.8812885000         0.3164240000
        0.5442493000         0.7443083000
 s    1  1.00
        0.1687144000         1.0000000000
 p    1  1.00
        0.1687144000         1.0000000000
 d    1  1.00
        0.8000000000         1.0000000000
 s    1  1.00
        0.0438000000         1.0000000000
 p    1  1.00
        0.0438000000         1.0000000000

  8 0
 s    3  1.00
       18.7311370000         0.0334946000
        2.8253937000         0.2347269500
        0.6401217000         0.8137573300
 s    1  1.00
        0.1612778000         1.0000000000

  9 0
 s    6  1.00
     3047.5249000000         0.0018347000
      457.3695100000         0.0140373000
      103.9486900000         0.0688426000
       29.2101550000         0.2321844000
        9.2866630000         0.4679413000
        3.1639270000         0.3623120000
 s    3  1.00
        7.8682724000        -0.1193324000
        1.8812885000        -0.1608542000
        0.5442493000         1.1434564000
 p    3  1.00
        7.8682724000         0.0689991000
        1.8812885000         0.3164240000
        0.5442493000         0.7443083000
 s    1  1.00
        0.1687144000         1.0000000000
 p    1  1.00
        0.1687144000         1.0000000000
 d    1  1.00
        0.8000000000         1.0000000000
 s    1  1.00
        0.0438000000         1.0000000000
 p    1  1.00
        0.0438000000         1.0000000000

  10 0
 s    6  1.00
     5484.6717000000         0.0018311000
      825.2349500000         0.0139501000
      188.0469600000         0.0684451000
       52.9645000000         0.2327143000
       16.8975700000         0.4701930000
        5.7996353000         0.3585209000
 s    3  1.00
       15.5396160000        -0.1107775000
        3.5999336000        -0.1480263000
        1.0137618000         1.1307670000
 p    3  1.00
       15.5396160000         0.0708743000
        3.5999336000         0.3397528000
        1.0137618000         0.7271586000
 s    1  1.00
        0.2700058000         1.0000000000
 p    1  1.00
        0.2700058000         1.0000000000
 d    1  1.00
        0.8000000000         1.0000000000
 s    1  1.00
        0.0845000000         1.0000000000
 p    1  1.00
        0.0845000000         1.0000000000

  11 0
 s    6  1.00
     5484.6717000000         0.0018311000
      825.2349500000         0.0139501000
      188.0469600000         0.0684451000
       52.9645000000         0.2327143000
       16.8975700000         0.4701930000
        5.7996353000         0.3585209000
 s    3  1.00
       15.5396160000        -0.1107775000
        3.5999336000        -0.1480263000
        1.0137618000         1.1307670000
 p    3  1.00
       15.5396160000         0.0708743000
        3.5999336000         0.3397528000
        1.0137618000         0.7271586000
 s    1  1.00
        0.2700058000         1.0000000000
 p    1  1.00
        0.2700058000         1.0000000000
 d    1  1.00
        0.8000000000         1.0000000000
 s    1  1.00
        0.0845000000         1.0000000000
 p    1  1.00
        0.0845000000         1.0000000000

  12 0
 s    3  1.00
       18.7311370000         0.0334946000
        2.8253937000         0.2347269500
        0.6401217000         0.8137573300
 s    1  1.00
        0.1612778000         1.0000000000

  13 0
 s    6  1.00
     3047.5249000000         0.0018347000
      457.3695100000         0.0140373000
      103.9486900000         0.0688426000
       29.2101550000         0.2321844000
        9.2866630000         0.4679413000
        3.1639270000         0.3623120000
 s    3  1.00
        7.8682724000        -0.1193324000
        1.8812885000        -0.1608542000
        0.5442493000         1.1434564000
 p    3  1.00
        7.8682724000         0.0689991000
        1.8812885000         0.3164240000
        0.5442493000         0.7443083000
 s    1  1.00
        0.1687144000         1.0000000000
 p    1  1.00
        0.1687144000         1.0000000000
 d    1  1.00
        0.8000000000         1.0000000000
 s    1  1.00
        0.0438000000         1.0000000000
 p    1  1.00
        0.0438000000         1.0000000000

  14 0
 s    3  1.00
       18.7311370000         0.0334946000
        2.8253937000         0.2347269500
        0.6401217000         0.8137573300
 s    1  1.00
        0.1612778000         1.0000000000

  15 0
 s    3  1.00
       18.7311370000         0.0334946000
        2.8253937000         0.2347269500
        0.6401217000         0.8137573300
 s    1  1.00
        0.1612778000         1.0000000000

  16 0
 s    3  1.00
       18.7311370000         0.0334946000
        2.8253937000         0.2347269500
        0.6401217000         0.8137573300
 s    1  1.00
        0.1612778000         1.0000000000

[MO]
 Sym= A
 Ene=        -0.0002626046
 Spin= Alpha
 Occup= -0.0005
  1       0.001109883045
  2      -0.032766126673
  3      -0.019679848423
  4       0.026558216522
  5       0.074814894961
  6      -0.177701786077
  7      -0.260449127221
  8       0.011880652357
  9      -0.434295298995
 10      -0.011935426023
 11      -0.013652209585
 12       0.015219326845
 13       0.005744870236
 14      -0.122977216124
 15       0.011260178198
 16      -1.167157314531
 17      -0.725111318939
 18       0.250236519384
 19       0.032360734652
 20      -0.001524436003
 21       0.011027980219
 22      -0.086051605695
 23       0.023685661024
 24      -0.039762405015
 25       0.119333190742
 26       0.322758406472
 27      -0.061944094697
 28       0.100821485385
 29       0.017496949585
 30       0.029600099210
 31      -0.064109763589
 32      -0.032891715930
 33      -0.110263614177
 34      -0.004188095679
 35       0.617098332497
 36       0.197236864704
 37      -0.114115413756
 38      -0.209155804299
 39       0.011758811050
 40       0.273945434103
 41      -0.114049001447
 42      -0.005900804003
 43      -0.097367052793
 44      -0.831940872509
 45       0.335886417276
 46       0.013102377802
 47       0.271385109200
 48       0.080145215872
 49      -0.026779952992
 50       0.031435954931
 51      -0.015690586792
 52       0.157062385776
 53      -0.012036139156
 54      -1.033523219557
 55      -0.761475010218
 56       0.056711393513
 57      -0.059089043606
 58       0.000988927283
 59      -0.006642736768
 60      -0.115672859347
 61       0.040468634082
 62      -0.284984967268
 63      -0.020634947602
 64       0.474012768302
 65      -0.238172493250
 66       1.133377470436
 67       0.013702437089
 68       0.023865688590
 69       0.023940932483
 70       0.019847690666
 71      -0.010487684557
 72       0.026297603969
 73      -1.315274378056
 74      -2.354342425017
 75       0.088679920810
 76      -1.632111393502
 77       0.051535876571
 78       0.288070724140
 79      -0.039343723386
 80       0.143481897434
 81      -0.004491443744
 82      -0.157681268310
 83       0.123362375475
 84       0.021092799606
 85       0.094206824438
 86       0.253394303522
 87      -0.311692749233
 88       0.087174844025
 89      -0.685027957637
 90       0.001991585717
 91       0.008350385503
 92       0.047393567665
 93      -0.028618639920
 94       0.091852154102
 95      -0.024061142704
 96       9.955440698416
 97       1.792743918859
 98      -1.926093760028
 99      -0.031800057192
100       0.114015005558
101       0.195234272276
102      -0.001940462790
103       0.057961256686
104      -0.021011396547
105       0.007865554163
106      -0.023594402533
107      -0.054759830977
108       0.245480059893
109       0.219728950773
110       0.357134729581
111      -0.014746729278
112      -0.052427033324
113       0.015723259326
114      -0.031003967180
115      -0.068025255142
116       0.030191471579
117      -6.200244018556
118       1.722830041979
119      -0.501904638820
120      -0.427883814336
121       0.003013334218
122       0.005920552467
123       0.084237467307
124       0.018571353741
125      -0.028394239836
126       0.056575381097
127      -0.325374307699
128       0.048320012994
129       0.041376510287
130       0.017538420750
131       0.031777381303
132       0.005021713770
133      -0.050968885237
134      -0.064719570985
135      -0.013075174387
136       0.853488447283
137      -0.112693325746
138       0.249355317359
139       0.094935887623
140       0.009462155605
141       0.145675719595
142       0.052493472273
143       0.012047234465
144       0.036990383521
145      -0.488972602005
146      -0.108813668541
147      -0.001534975761
148      -0.126573536872
149       0.044341017532
150       0.017096307981
151       0.006619979208
152       0.032316173096
153       0.041581713261
154       0.032134347608
155      -0.455143165866
156       0.134823779577
157       0.236540318666
158       0.025547452654
159       0.002861180587
160       0.103878238653
161       0.007029386083
162       0.020229665486
163      -0.012555606157
164       0.075885975401
165      -0.040814151430
166      -0.177791112382
167       0.127514006069
168       0.084448578411
169       0.105452930871
170       0.008318039508
171       0.007605877239
172       0.028759130254
173       0.016413881388
174      -0.021337184574
175      -0.074448482249
176      -0.544446894280
177      -0.310908240979
178       0.475611213862
179      -0.156446001672
180       0.037139376527
181      -0.113415009393
182       0.002652029935
183      -0.229432270468
184       0.071794472969
185      -0.301217253852
 Sym= A
 Ene=        -0.0002046545
 Spin= Alpha
 Occup= -0.0004
  1      -0.009496751317
  2      -0.155414468512
  3      -0.076675627632
  4      -0.006432526544
  5       0.039678727349
  6       0.277199771244
  7       0.641202843290
  8      -0.109535897953
  9      -0.410219862803
 10      -0.031350042791
 11      -0.012207132094
 12       0.063589242307
 13      -0.011944001849
 14       0.031600054456
 15       0.053228121447
 16      -1.548069655560
 17      -0.017948011112
 18      -0.377060603370
 19      -0.409502269161
 20      -0.007075100519
 21      -0.040393407841
 22       0.123162944251
 23      -0.005115665092
 24       0.008183141900
 25       0.225171745304
 26      -0.449014710351
 27       0.032640714485
 28      -0.051800812869
 29      -0.021998234924
 30      -0.013163344484
 31      -0.039656061840
 32      -0.020225291059
 33       0.098742322857
 34      -0.008793737477
 35       0.842099338234
 36       0.232742643479
 37      -0.193509621916
 38      -0.267791840394
 39      -0.007309182201
 40      -0.043048831654
 41       0.051280641556
 42      -0.036209773533
 43      -0.022618818726
 44       0.129832985554
 45      -0.281770112467
 46       0.114866145015
 47       0.095568109331
 48      -0.073075225541
 49      -0.014395956107
 50       0.000774704306
 51       0.001494766988
 52      -0.015943798387
 53       0.016123220224
 54      -0.360825327715
 55      -0.229541070595
 56       0.024649510821
 57       0.305197715510
 58       0.024337792211
 59       0.184323327831
 60       0.060721695904
 61      -0.061483720888
 62      -0.193993000543
 63      -0.862795626731
 64      -0.087471893674
 65       0.246122880677
 66       0.590557226558
 67       0.038098180983
 68       0.015754467319
 69       0.055314939583
 70       0.002713526366
 71       0.033254566135
 72       0.014783500991
 73      -2.148707012441
 74      -0.059730085378
 75      -0.189442516353
 76      -1.761813715019
 77       0.076579578975
 78       0.123090181998
 79       0.039316753133
 80       0.275264215200
 81       0.005345956464
 82      -0.054654480105
 83      -0.087756902936
 84       0.090215466808
 85       0.079149821299
 86      -0.205310661942
 87       0.109072355098
 88      -0.064978622042
 89      -0.364588431590
 90       0.051452558851
 91      -0.000813117344
 92      -0.003054331134
 93      -0.010399789591
 94       0.075779017771
 95       0.029688706289
 96      -3.590177755307
 97      -4.206676886965
 98       0.379252931708
 99       1.962186745591
100       0.115526198469
101      -0.101941133036
102       0.000126169988
103      -0.103833069604
104       0.055831127459
105      -0.031369548764
106      -0.016720727602
107      -0.013921156269
108      -0.969644100996
109      -0.189364393450
110       0.030837839212
111      -0.035567674864
112       0.067588768082
113       0.006295799778
114       0.113069320312
115      -0.042572977378
116       0.074107865004
117       4.472956752689
118      -1.552591437936
119       0.668654055983
120      -0.128716545570
121      -0.006961816463
122      -0.026058401662
123      -0.214348967824
124      -0.000858541093
125      -0.037329261968
126       0.011190104885
127       0.845059934079
128      -0.066301351912
129       0.059460212244
130      -0.019670652403
131      -0.066261828303
132      -0.023605030654
133       0.166530886654
134       0.001562483221
135       0.000531704815
136       0.126372229919
137      -0.417370038557
138      -0.053750943121
139       0.042784964942
140      -0.024585374372
141      -0.240775288465
142      -0.105430101374
143       0.008558373535
144      -0.009333611130
145       0.908034412974
146       0.208198497858
147      -0.180774168677
148      -0.018244094895
149      -0.111527395228
150      -0.038531030460
151      -0.043929111196
152      -0.030251699385
153      -0.010031923801
154       0.013639839575
155       0.964926017072
156      -0.442907721120
157      -0.225140490627
158      -0.072060537824
159      -0.060520971012
160       0.168917347855
161       0.000257392389
162       0.040009137721
163      -0.002788620334
164      -0.024476746504
165      -0.014494769627
166      -0.019937183788
167      -0.032136229132
168       0.109420395097
169       0.078627502694
170       0.024416880308
171      -0.040143013192
172       0.001270279005
173       0.024024463829
174       0.012963043432
175      -0.079491020660
176       0.932257818710
177       0.895954102030
178      -0.432394087764
179      -0.342035865746
180       0.001850827684
181      -0.067943085374
182      -0.051034927767
183       0.134966651224
184       0.051354724946
185      -0.180884982980
 Sym= A
 Ene=        -0.0001540871
 Spin= Alpha
 Occup= -0.0003
  1      -0.009108412546
  2      -0.143955651180
  3      -0.038530267090
  4       0.031703481115
  5      -0.018953780378
  6       0.091626439833
  7       0.759826150251
  8      -0.149979432939
  9      -0.586041775500
 10      -0.061434031140
 11       0.022708139425
 12       0.069895909038
 13       0.043474216102
 14       0.118706324019
 15      -0.045905887861
 16       1.309567299036
 17       1.146541981654
 18       0.016984469032
 19      -0.466914234332
 20      -0.025583822580
 21      -0.206269415328
 22       0.197817078539
 23      -0.016280054124
 24       0.026933255579
 25       0.844801042977
 26      -0.674889634468
 27       0.078206669497
 28      -0.266021221863
 29      -0.088683800886
 30      -0.073091841034
 31      -0.059598044225
 32       0.026999238782
 33       0.158483377382
 34      -0.000049156165
 35       0.739009621717
 36       0.433178656944
 37      -0.196545151595
 38      -0.179203524558
 39      -0.025501247019
 40      -0.265537516969
 41       0.136998502053
 42       0.020085476561
 43       0.026635405917
 44       0.687086674175
 45      -0.583356343952
 46      -0.025751969371
 47      -0.036345300761
 48      -0.160807000186
 49      -0.055285879976
 50      -0.058771601377
 51       0.009914268361
 52      -0.096425496618
 53       0.001294882845
 54       0.517195715408
 55       0.452545959331
 56      -0.010592578558
 57       0.507116089002
 58       0.004421694762
 59      -0.003739090928
 60       0.075872291978
 61       0.002411077628
 62      -0.097043519490
 63      -0.361036329274
 64      -0.032065286276
 65      -0.112113557609
 66       0.238327524000
 67       0.042915314931
 68      -0.023085707954
 69      -0.004838392559
 70      -0.027139455071
 71       0.015022124017
 72       0.015271568789
 73      -2.007264067400
 74       1.980932309527
 75      -0.128570269765
 76      -1.090064658512
 77       0.069713706479
 78       0.085419957022
 79       0.026636273196
 80      -0.004945334659
 81       0.001424225128
 82       0.085428343588
 83       0.036938054221
 84      -0.072310345055
 85       0.036469311175
 86       0.277505720629
 87       0.010452143426
 88       0.115152567287
 89      -0.190780672512
 90      -0.057099771258
 91       0.020074207694
 92       0.020395026873
 93       0.024345097618
 94       0.043509823714
 95      -0.013224253345
 96       2.622230837424
 97       1.229594485907
 98      -1.774962484907
 99       0.840011670697
100       0.047429944746
101      -0.220139523249
102       0.002622992131
103       0.067529051619
104      -0.018727757887
105       0.019136566004
106       0.007350686576
107      -0.122405760992
108       0.452553311270
109      -0.252979243898
110       0.017101940019
111       0.036883434712
112      -0.033725252455
113      -0.014559712491
114      -0.111409657644
115      -0.060934782417
116       0.032289747313
117      -4.747399379543
118       2.002531217385
119      -0.442496968914
120      -0.424052906475
121       0.021458760897
122       0.171699501249
123       0.133845553755
124      -0.022989122790
125      -0.022114814781
126      -0.591909718706
127      -0.499142404011
128       0.005753071762
129       0.029416525534
130       0.058519416967
131       0.099025073672
132       0.057991891266
133      -0.099928171318
134      -0.055561017744
135       0.026074020218
136      -0.124517940489
137       0.503324168315
138       0.012298118951
139       0.052333748675
140       0.015874469781
141       0.161581556318
142       0.079651862526
143      -0.006540899045
144       0.022481831627
145      -0.489289904401
146      -0.230797228858
147       0.071344636280
148      -0.065030630526
149       0.098641926917
150       0.013422413815
151       0.032586324535
152       0.033890642611
153       0.018599167639
154      -0.008258080538
155      -0.058866739190
156       0.056513568916
157       0.188662666377
158       0.094384000879
159       0.057391582346
160      -0.202406090476
161       0.003927703152
162      -0.014630011851
163       0.004565442477
164       0.064874109986
165      -0.013089056650
166      -0.057225617803
167       0.046895517574
168      -0.045354809395
169      -0.028823727183
170       0.013939771214
171       0.007991544046
172       0.021617458781
173       0.005117440180
174      -0.025012439229
175      -0.055028963231
176       2.111492669354
177      -0.028509669856
178      -0.166266662918
179       0.127397983712
180      -0.008524032278
181       0.054773362287
182       0.055591839808
183      -0.241595702157
184       0.042361177008
185      -0.264018025740
 Sym= A
 Ene=        -0.0000894741
 Spin= Alpha
 Occup= -0.0002
  1       0.005933506984
  2       0.057047727207
  3      -0.004451379960
  4      -0.063579221266
  5       0.007022883813
  6      -0.319701882607
  7      -0.062402409526
  8      -0.138920491423
  9      -0.142919424262
 10      -0.009197096972
 11       0.004935342606
 12       0.011006585221
 13       0.051539131274
 14       0.001323553931
 15       0.169463950531
 16      -1.383369551576
 17      -0.475315799802
 18      -0.367605779420
 19       0.138493199929
 20      -0.010418479910
 21      -0.082249761434
 22      -0.006798439555
 23      -0.034486214940
 24      -0.007921141163
 25       0.298162227041
 26       0.003589177924
 27       0.014275886236
 28      -0.020088882893
 29      -0.022636983100
 30      -0.040840575410
 31      -0.044806574616
 32      -0.022676407115
 33       0.002478248608
 34      -0.086167586960
 35       0.295348183908
 36       0.169528354143
 37       0.403020913998
 38      -0.054907363772
 39      -0.011381170814
 40      -0.068897500693
 41       0.003239236905
 42      -0.223976452332
 43       0.006420784614
 44       0.229898121459
 45      -0.026167939882
 46       0.700861216369
 47       0.005385259832
 48      -0.036630691957
 49      -0.043744465048
 50      -0.035960747727
 51       0.075011887379
 52       0.011266398284
 53       0.078027639772
 54      -0.335523289073
 55      -0.058665525685
 56      -0.396000371927
 57      -0.039181518159
 58      -0.007690449825
 59      -0.078326937020
 60      -0.033325095135
 61      -0.043574911333
 62      -0.023790706092
 63       0.405555045832
 64       0.227797479684
 65       0.307089866486
 66       0.065803635380
 67      -0.003170749758
 68      -0.013015894243
 69      -0.003529829079
 70      -0.012679361874
 71      -0.012397422556
 72      -0.001785697072
 73      -0.643794805884
 74      -1.057731176925
 75      -0.918128450185
 76       0.345140254462
 77       0.018506581865
 78       0.055850833449
 79       0.095782464185
 80      -0.367205295032
 81       0.004370556841
 82       0.056019586652
 83       0.044485737652
 84       0.076085672611
 85      -0.030506736477
 86      -0.363418003668
 87       0.036343499198
 88      -0.182510288883
 89       0.363212985355
 90      -0.010615891356
 91      -0.008575461966
 92       0.000312145412
 93      -0.004399462505
 94      -0.066771055495
 95       0.067135177135
 96       8.785844303969
 97      -0.853043097181
 98       2.851247948630
 99      -2.847140028817
100       0.017106703641
101      -0.254977349685
102      -0.001113770761
103      -0.017108348196
104      -0.011195144215
105      -0.043649148923
106       0.077224087240
107       0.061807444134
108      -0.091849749394
109      -0.031990932556
110      -0.077770534647
111      -0.025569863149
112      -0.003096009672
113       0.029392592281
114      -0.105941685337
115       0.137614088526
116       0.097677056258
117       0.691002657607
118      -0.134431608268
119      -0.273340355828
120       1.279049308041
121      -0.010395766780
122      -0.052623820859
123       0.032094959915
124       0.009504777495
125       0.038812574248
126       0.128621669239
127      -0.100652495407
128      -0.100036084250
129      -0.025460126948
130      -0.023938487153
131      -0.046377244321
132      -0.053859951890
133       0.007245045943
134      -0.070499430648
135      -0.069144929633
136       0.143904421431
137       0.068247487411
138       0.289072570737
139      -0.364446994776
140      -0.004304493427
141      -0.025774852344
142       0.012823952369
143      -0.032052997066
144       0.237853098723
145       0.183607806826
146      -0.090760311633
147       0.066201077204
148      -0.768097694974
149       0.007284625820
150      -0.008908878695
151      -0.008186664336
152       0.022544223325
153       0.032964786944
154       0.029301960065
155      -0.517358320300
156       0.302620123568
157      -0.075197253825
158       0.699820156427
159       0.008263228810
160      -0.106202133546
161      -0.020299463906
162      -0.071073350909
163       0.025431282845
164      -0.039555432529
165       0.094740380593
166       0.321906884136
167       0.046333972228
168      -0.244925749108
169      -0.246466566430
170      -0.043540248321
171      -0.059100370793
172      -0.015678988508
173      -0.014130473490
174      -0.047800451008
175       0.014758315576
176      -7.791375839718
177       0.238563570431
178       1.560655790388
179      -0.386595050508
180      -0.072943402307
181       0.489866370655
182       0.030622771606
183       0.024019276128
184      -0.181113700301
185       0.349788513784
 Sym= A
 Ene=        -0.0000805976
 Spin= Alpha
 Occup= -0.0002
  1       0.003084717502
  2       0.043594969842
  3      -0.015184776321
  4      -0.073771953640
  5       0.004424060869
  6      -0.211343437464
  7       0.010345430068
  8      -0.099982091953
  9      -0.079379855500
 10      -0.004891223381
 11      -0.005166348196
 12       0.004163873126
 13       0.083927465241
 14       0.022715726246
 15       0.201521846626
 16      -1.958664472429
 17      -0.851764342063
 18      -0.529918085680
 19       0.212360663094
 20       0.002852837101
 21      -0.000779887781
 22       0.004191631949
 23      -0.034817439479
 24       0.002876318797
 25      -0.040352373259
 26      -0.046492438199
 27      -0.009905715276
 28      -0.003107714916
 29       0.002305772358
 30       0.008902187069
 31       0.008549744887
 32      -0.020524534619
 33      -0.006106404513
 34      -0.093921173819
 35       0.628289458385
 36       0.243402735798
 37       0.550570621977
 38      -0.238764519253
 39      -0.000430903684