
    -----------------------------------------------------------------------
          Psi4: An Open-Source Ab Initio Electronic Structure Package
                               Psi4 1.2.1 release

                         Git: Rev {HEAD} 406f4de 


    R. M. Parrish, L. A. Burns, D. G. A. Smith, A. C. Simmonett,
    A. E. DePrince III, E. G. Hohenstein, U. Bozkaya, A. Yu. Sokolov,
    R. Di Remigio, R. M. Richard, J. F. Gonthier, A. M. James,
    H. R. McAlexander, A. Kumar, M. Saitow, X. Wang, B. P. Pritchard,
    P. Verma, H. F. Schaefer III, K. Patkowski, R. A. King, E. F. Valeev,
    F. A. Evangelista, J. M. Turney, T. D. Crawford, and C. D. Sherrill,
    J. Chem. Theory Comput. 13(7) pp 3185--3197 (2017).
    (doi: 10.1021/acs.jctc.7b00174)


                         Additional Contributions by
    P. Kraus, H. Kruse, M. H. Lechner, M. C. Schieber, and R. A. Shaw

    -----------------------------------------------------------------------


    Psi4 started on: Wednesday, 20 February 2019 01:34PM

    Process ID: 7605
    Host:       localhost.localdomain
    PSIDATADIR: /root/psi4conda/share/psi4
    Memory:     500.0 MiB
    Threads:    1
    
  ==> Input File <==

--------------------------------------------------------------------------

molecule{ 
0 1
 C   -1.987253340046   -0.201209974145    0.368946348714
 O   -2.186087699266   -0.071174664500    1.546261708528
 O   -2.715475607547   -0.146675923162   -0.716366274363
 N   -0.621545950914   -0.449969095933   -0.297744000449
 H   -1.783350745126   -0.254126059322   -1.264234810006
 H   -0.339273074484   -1.429725670373   -0.201309428630
 C    0.475532325723    0.431076724905    0.122243114905
 H    0.391505197212    0.590843718648    1.210103337150
 C    1.790342678425   -0.309093521331   -0.092617705679
 O    1.875302965325   -1.488390367594   -0.367284004290
 O    2.862034857915    0.485708227448    0.098356456730
 H    3.657226705040   -0.060096963105   -0.010351815203
 C    0.406962683440    1.791183761108   -0.585612245928
 H   -0.560679966034    2.263681488105   -0.386560898211
 H    1.194002736957    2.454332387203   -0.217827391851
 H    0.519788521702    1.673880836581   -1.668767958112
}

set basis 6-31+G*
set_num_threads(16)
e, wfn = properties('mp2', return_wfn=True)

d = wfn.Da().to_array()
s = wfn.S().to_array()
c = wfn.Ca().to_array()
occs = c.T.dot(s.dot(d).dot(s).dot(c))

molden(wfn, 'mp2.molden', density_a = psi4.core.Matrix.from_array(occs))
--------------------------------------------------------------------------
  Threads set to 16 by Python driver.
    SCF Algorithm Type (re)set to DF.

*** tstart() called on localhost.localdomain
*** at Wed Feb 20 13:34:12 2019

   => Loading Basis Set <=

    Name: 6-31+G*
    Role: ORBITAL
    Keyword: BASIS
    atoms 1, 7, 9, 13       entry C          line   119 file /root/psi4conda/share/psi4/basis/6-31pgs.gbs 
    atoms 2-3, 10-11        entry O          line   157 file /root/psi4conda/share/psi4/basis/6-31pgs.gbs 
    atoms 4                 entry N          line   138 file /root/psi4conda/share/psi4/basis/6-31pgs.gbs 
    atoms 5-6, 8, 12, 14-16 entry H          line    46 file /root/psi4conda/share/psi4/basis/6-31pgs.gbs 


         ---------------------------------------------------------
                                   SCF
            by Justin Turney, Rob Parrish, Andy Simmonett
                             and Daniel Smith
                              RHF Reference
                       16 Threads,    500 MiB Core
         ---------------------------------------------------------

  ==> Geometry <==

    Molecular point group: c1
    Full point group: C1

    Geometry (in Angstrom), charge = 0, multiplicity = 1:

       Center              X                  Y                   Z               Mass       
    ------------   -----------------  -----------------  -----------------  -----------------
         C           -1.987253340046    -0.201209974145     0.368946348714    12.000000000000
         O           -2.186087699266    -0.071174664500     1.546261708528    15.994914619560
         O           -2.715475607547    -0.146675923162    -0.716366274363    15.994914619560
         N           -0.621545950914    -0.449969095933    -0.297744000449    14.003074004780
         H           -1.783350745126    -0.254126059322    -1.264234810006     1.007825032070
         H           -0.339273074484    -1.429725670373    -0.201309428630     1.007825032070
         C            0.475532325723     0.431076724905     0.122243114905    12.000000000000
         H            0.391505197212     0.590843718648     1.210103337150     1.007825032070
         C            1.790342678425    -0.309093521331    -0.092617705679    12.000000000000
         O            1.875302965325    -1.488390367594    -0.367284004290    15.994914619560
         O            2.862034857915     0.485708227448     0.098356456730    15.994914619560
         H            3.657226705040    -0.060096963105    -0.010351815203     1.007825032070
         C            0.406962683440     1.791183761108    -0.585612245928    12.000000000000
         H           -0.560679966034     2.263681488105    -0.386560898211     1.007825032070
         H            1.194002736957     2.454332387203    -0.217827391851     1.007825032070
         H            0.519788521702     1.673880836581    -1.668767958112     1.007825032070

  Running in c1 symmetry.

  Rotational constants: A =      0.10522  B =      0.03019  C =      0.02802 [cm^-1]
  Rotational constants: A =   3154.41971  B =    904.95097  C =    840.06167 [MHz]
  Nuclear repulsion =  465.843108909517923

  Charge       = 0
  Multiplicity = 1
  Electrons    = 70
  Nalpha       = 35
  Nbeta        = 35

  ==> Algorithm <==

  SCF Algorithm Type is DF.
  DIIS enabled.
  MOM disabled.
  Fractional occupation disabled.
  Guess Type is SAD.
  Energy threshold   = 1.00e-10
  Density threshold  = 1.00e-10
  Integral threshold = 0.00e+00

  ==> Primary Basis <==

  Basis Set: 6-31+G*
    Blend: 6-31+G*
    Number of shells: 86
    Number of basis function: 185
    Number of Cartesian functions: 185
    Spherical Harmonics?: false
    Max angular momentum: 2

   => Loading Basis Set <=

    Name: (6-31+G* AUX)
    Role: JKFIT
    Keyword: DF_BASIS_SCF
    atoms 1, 7, 9, 13       entry C          line   194 file /root/psi4conda/share/psi4/basis/heavy-aug-cc-pvdz-jkfit.gbs 
    atoms 2-3, 10-11        entry O          line   310 file /root/psi4conda/share/psi4/basis/heavy-aug-cc-pvdz-jkfit.gbs 
    atoms 4                 entry N          line   252 file /root/psi4conda/share/psi4/basis/heavy-aug-cc-pvdz-jkfit.gbs 
    atoms 5-6, 8, 12, 14-16 entry H          line   116 file /root/psi4conda/share/psi4/basis/heavy-aug-cc-pvdz-jkfit.gbs 

  ==> Pre-Iterations <==

   -------------------------------------------------------
    Irrep   Nso     Nmo     Nalpha   Nbeta   Ndocc  Nsocc
   -------------------------------------------------------
     A        185     185       0       0       0       0
   -------------------------------------------------------
    Total     185     185      35      35      35       0
   -------------------------------------------------------

  ==> Integral Setup <==

  ==> DiskDFJK: Density-Fitted J/K Matrices <==

    J tasked:                  Yes
    K tasked:                  Yes
    wK tasked:                  No
    OpenMP threads:             16
    Integrals threads:          16
    Memory (MB):               375
    Algorithm:                Core
    Integral Cache:           NONE
    Schwarz Cutoff:          1E-12
    Fitting Condition:       1E-12

   => Auxiliary Basis Set <=

  Basis Set: (6-31+G* AUX)
    Blend: HEAVY-AUG-CC-PVDZ-JKFIT
    Number of shells: 315
    Number of basis function: 1084
    Number of Cartesian functions: 1084
    Spherical Harmonics?: false
    Max angular momentum: 3

  Minimum eigenvalue in the overlap matrix is 4.0210438041E-05.
  Using Symmetric Orthogonalization.

  SCF Guess: Superposition of Atomic Densities via on-the-fly atomic UHF.

  ==> Iterations <==

                           Total Energy        Delta E     RMS |[F,P]|

   @DF-RHF iter   0:  -512.61125562473421   -5.12611e+02   1.00985e-01 
   @DF-RHF iter   1:  -509.13405245402737    3.47720e+00   1.51362e-02 
   @DF-RHF iter   2:  -509.35208623063284   -2.18034e-01   7.74814e-03 DIIS
   @DF-RHF iter   3:  -509.42790680650762   -7.58206e-02   2.13423e-03 DIIS
   @DF-RHF iter   4:  -509.43647396797019   -8.56716e-03   8.47368e-04 DIIS
   @DF-RHF iter   5:  -509.43781230777034   -1.33834e-03   3.14382e-04 DIIS
   @DF-RHF iter   6:  -509.43808265045760   -2.70343e-04   9.79361e-05 DIIS
   @DF-RHF iter   7:  -509.43812675035542   -4.40999e-05   4.38209e-05 DIIS
   @DF-RHF iter   8:  -509.43813234455843   -5.59420e-06   1.94681e-05 DIIS
   @DF-RHF iter   9:  -509.43813366460643   -1.32005e-06   6.39178e-06 DIIS
   @DF-RHF iter  10:  -509.43813382893728   -1.64331e-07   2.77828e-06 DIIS
   @DF-RHF iter  11:  -509.43813385396811   -2.50308e-08   9.78885e-07 DIIS
   @DF-RHF iter  12:  -509.43813385699951   -3.03140e-09   4.40267e-07 DIIS
   @DF-RHF iter  13:  -509.43813385752082   -5.21311e-10   1.50324e-07 DIIS
   @DF-RHF iter  14:  -509.43813385760689   -8.60609e-11   7.58295e-08 DIIS
   @DF-RHF iter  15:  -509.43813385762007   -1.31877e-11   2.31364e-08 DIIS
   @DF-RHF iter  16:  -509.43813385762127   -1.19371e-12   7.59984e-09 DIIS
   @DF-RHF iter  17:  -509.43813385762235   -1.08002e-12   2.82052e-09 DIIS
   @DF-RHF iter  18:  -509.43813385762235    0.00000e+00   1.22763e-09 DIIS
   @DF-RHF iter  19:  -509.43813385762178    5.68434e-13   6.06163e-10 DIIS
   @DF-RHF iter  20:  -509.43813385762269   -9.09495e-13   1.97256e-10 DIIS
   @DF-RHF iter  21:  -509.43813385762223    4.54747e-13   7.32807e-11 DIIS

  ==> Post-Iterations <==

    Orbital Energies [Eh]
    ---------------------

    Doubly Occupied:                                                      

       1A    -20.657478     2A    -20.626432     3A    -20.598708  
       4A    -20.587929     5A    -15.617420     6A    -11.441200  
       7A    -11.428823     8A    -11.320515     9A    -11.256117  
      10A     -1.500101    11A     -1.489073    12A     -1.397344  
      13A     -1.396960    14A     -1.241267    15A     -1.059511  
      16A     -0.940263    17A     -0.848650    18A     -0.804609  
      19A     -0.772258    20A     -0.739696    21A     -0.721331  
      22A     -0.705659    23A     -0.682838    24A     -0.658115  
      25A     -0.635267    26A     -0.622095    27A     -0.599423  
      28A     -0.581429    29A     -0.557631    30A     -0.550172  
      31A     -0.512363    32A     -0.494902    33A     -0.487258  
      34A     -0.481688    35A     -0.434561  

    Virtual:                                                              

      36A      0.058727    37A      0.075212    38A      0.080617  
      39A      0.088130    40A      0.108735    41A      0.112878  
      42A      0.116219    43A      0.124890    44A      0.130356  
      45A      0.139114    46A      0.150988    47A      0.159060  
      48A      0.170234    49A      0.179057    50A      0.187899  
      51A      0.190586    52A      0.203012    53A      0.225764  
      54A      0.245242    55A      0.262894    56A      0.273282  
      57A      0.281850    58A      0.286960    59A      0.300286  
      60A      0.306879    61A      0.326994    62A      0.330483  
      63A      0.336975    64A      0.347518    65A      0.353375  
      66A      0.363002    67A      0.366039    68A      0.373558  
      69A      0.380461    70A      0.393801    71A      0.398253  
      72A      0.407017    73A      0.410582    74A      0.416609  
      75A      0.434541    76A      0.441556    77A      0.447480  
      78A      0.471226    79A      0.479304    80A      0.493966  
      81A      0.496422    82A      0.519153    83A      0.537096  
      84A      0.562438    85A      0.576289    86A      0.594518  
      87A      0.695341    88A      0.761756    89A      0.839986  
      90A      0.869357    91A      0.891002    92A      0.927834  
      93A      0.936053    94A      0.956838    95A      0.987442  
      96A      1.015658    97A      1.029705    98A      1.043032  
      99A      1.075127   100A      1.097300   101A      1.138101  
     102A      1.200702   103A      1.217850   104A      1.229266  
     105A      1.239496   106A      1.280002   107A      1.282344  
     108A      1.320599   109A      1.335058   110A      1.343146  
     111A      1.380100   112A      1.397116   113A      1.431091  
     114A      1.462203   115A      1.477479   116A      1.506342  
     117A      1.507606   118A      1.546520   119A      1.547529  
     120A      1.563078   121A      1.575738   122A      1.579564  
     123A      1.598590   124A      1.605818   125A      1.622811  
     126A      1.645763   127A      1.668987   128A      1.696712  
     129A      1.770959   130A      1.789242   131A      1.832318  
     132A      1.866558   133A      1.872636   134A      1.927194  
     135A      1.957881   136A      1.991401   137A      2.015584  
     138A      2.036990   139A      2.045291   140A      2.060731  
     141A      2.074296   142A      2.097872   143A      2.116920  
     144A      2.142098   145A      2.159146   146A      2.195744  
     147A      2.218336   148A      2.267299   149A      2.312017  
     150A      2.324799   151A      2.341735   152A      2.395410  
     153A      2.448707   154A      2.465694   155A      2.522387  
     156A      2.560194   157A      2.617081   158A      2.622246  
     159A      2.659589   160A      2.682796   161A      2.775502  
     162A      2.783817   163A      2.871229   164A      2.896831  
     165A      2.952413   166A      2.981497   167A      2.995711  
     168A      3.106870   169A      3.195516   170A      3.222368  
     171A      3.282486   172A      3.348563   173A      3.455465  
     174A      3.469065   175A      3.502191   176A      3.552370  
     177A      4.439163   178A      4.561953   179A      4.615446  
     180A      4.644491   181A      4.776384   182A      4.845179  
     183A      4.925780   184A      4.965903   185A      5.068894  

    Final Occupation by Irrep:
              A 
    DOCC [    35 ]

  Energy converged.

  @DF-RHF Final Energy:  -509.43813385762223

   => Energetics <=

    Nuclear Repulsion Energy =            465.8431089095179232
    One-Electron Energy =               -1621.6643132883589260
    Two-Electron Energy =                 646.3830705212187695
    Total Energy =                       -509.4381338576222333


*** tstop() called on localhost.localdomain at Wed Feb 20 13:34:16 2019
Module time:
	user time   =      50.23 seconds =       0.84 minutes
	system time =       3.26 seconds =       0.05 minutes
	total time  =          4 seconds =       0.07 minutes
Total time:
	user time   =      50.23 seconds =       0.84 minutes
	system time =       3.26 seconds =       0.05 minutes
	total time  =          4 seconds =       0.07 minutes
   => Loading Basis Set <=

    Name: (6-31+G* AUX)
    Role: RIFIT
    Keyword: DF_BASIS_MP2
    atoms 1, 7, 9, 13       entry C          line   116 file /root/psi4conda/share/psi4/basis/heavy-aug-cc-pvdz-ri.gbs 
    atoms 2-3, 10-11        entry O          line   208 file /root/psi4conda/share/psi4/basis/heavy-aug-cc-pvdz-ri.gbs 
    atoms 4                 entry N          line   162 file /root/psi4conda/share/psi4/basis/heavy-aug-cc-pvdz-ri.gbs 
    atoms 5-6, 8, 12, 14-16 entry H          line    44 file /root/psi4conda/share/psi4/basis/heavy-aug-cc-pvdz-ri.gbs 


  //>>>>>>>>>>>>>>>>>>>>>>>>>>>>>>>>>>>//
  //               DFMP2               //
  //<<<<<<<<<<<<<<<<<<<<<<<<<<<<<<<<<<<//

	 --------------------------------------------------------
	                          DF-MP2                         
	      2nd-Order Density-Fitted Moller-Plesset Theory     
	              RMP2 Wavefunction,  16 Threads             
	                                                         
	        Rob Parrish, Justin Turney, Andy Simmonett,      
	           Ed Hohenstein, and C. David Sherrill          
	 --------------------------------------------------------

   => Auxiliary Basis Set <=

  Basis Set: (6-31+G* AUX)
    Blend: HEAVY-AUG-CC-PVDZ-RI
    Number of shells: 240
    Number of basis function: 746
    Number of Cartesian functions: 879
    Spherical Harmonics?: true
    Max angular momentum: 3

	 --------------------------------------------------------
	                 NBF =   185, NAUX =   746
	 --------------------------------------------------------
	   CLASS    FOCC     OCC    AOCC    AVIR     VIR    FVIR
	   PAIRS       0      35      35     150     150       0
	 --------------------------------------------------------


         ------------------------------------------------------------
                                     CPHF                           
                                  Rob Parrish                       
         ------------------------------------------------------------

  ==> Geometry <==

    Molecular point group: c1
    Full point group: C1

    Geometry (in Angstrom), charge = 0, multiplicity = 1:

       Center              X                  Y                   Z               Mass       
    ------------   -----------------  -----------------  -----------------  -----------------
         C           -1.987253340046    -0.201209974145     0.368946348714    12.000000000000
         O           -2.186087699266    -0.071174664500     1.546261708528    15.994914619560
         O           -2.715475607547    -0.146675923162    -0.716366274363    15.994914619560
         N           -0.621545950914    -0.449969095933    -0.297744000449    14.003074004780
         H           -1.783350745126    -0.254126059322    -1.264234810006     1.007825032070
         H           -0.339273074484    -1.429725670373    -0.201309428630     1.007825032070
         C            0.475532325723     0.431076724905     0.122243114905    12.000000000000
         H            0.391505197212     0.590843718648     1.210103337150     1.007825032070
         C            1.790342678425    -0.309093521331    -0.092617705679    12.000000000000
         O            1.875302965325    -1.488390367594    -0.367284004290    15.994914619560
         O            2.862034857915     0.485708227448     0.098356456730    15.994914619560
         H            3.657226705040    -0.060096963105    -0.010351815203     1.007825032070
         C            0.406962683440     1.791183761108    -0.585612245928    12.000000000000
         H           -0.560679966034     2.263681488105    -0.386560898211     1.007825032070
         H            1.194002736957     2.454332387203    -0.217827391851     1.007825032070
         H            0.519788521702     1.673880836581    -1.668767958112     1.007825032070

  Nuclear repulsion =  465.843108909517923
  Reference energy  = -509.438133857622233

  ==> Basis Set <==

  Basis Set: 6-31+G*
    Blend: 6-31+G*
    Number of shells: 86
    Number of basis function: 185
    Number of Cartesian functions: 185
    Spherical Harmonics?: false
    Max angular momentum: 2

  ==> CGRSolver (by Rob Parrish) <==

   Number of roots    =         1
   Preconditioning    =    JACOBI
   Convergence cutoff =     1E-06
   Maximum iterations =       100

  ==> CPHFRHamiltonian (by Rob Parrish) <== 

  ==> DiskDFJK: Density-Fitted J/K Matrices <==

    J tasked:                  Yes
    K tasked:                  Yes
    wK tasked:                  No
    OpenMP threads:             16
    Integrals threads:          16
    Memory (MB):               375
    Algorithm:                Core
    Integral Cache:           NONE
    Schwarz Cutoff:          1E-12
    Fitting Condition:       1E-12

   => Auxiliary Basis Set <=

  Basis Set: (6-31+G* AUX)
    Blend: HEAVY-AUG-CC-PVDZ-JKFIT
    Number of shells: 315
    Number of basis function: 1084
    Number of Cartesian functions: 1084
    Spherical Harmonics?: false
    Max angular momentum: 3

  ==> CPHF Iterations <==

  => Iterations <=

             Iter  Converged  Remaining    Residual
  CGR           1          0          1   1.490E-01
  CGR           2          0          1   4.043E-02
  CGR           3          0          1   1.832E-02
  CGR           4          0          1   4.983E-03
  CGR           5          0          1   2.116E-03
  CGR           6          0          1   7.381E-04
  CGR           7          0          1   3.010E-04
  CGR           8          0          1   8.805E-05
  CGR           9          0          1   3.532E-05
  CGR          10          0          1   1.303E-05
  CGR          11          0          1   4.388E-06
  CGR          12          0          1   2.030E-06
  CGR          13          1          0   8.915E-07

    CGRSolver converged.

	-----------------------------------------------------------
	 ==================> DF-MP2 Energies <==================== 
	-----------------------------------------------------------
	 Reference Energy          =    -509.4381338576222333 [Eh]
	 Singles Energy            =      -0.0000000000000000 [Eh]
	 Same-Spin Energy          =      -0.3950823326910616 [Eh]
	 Opposite-Spin Energy      =      -1.0613310370057609 [Eh]
	 Correlation Energy        =      -1.4564133696968224 [Eh]
	 Total Energy              =    -510.8945472273190376 [Eh]
	-----------------------------------------------------------
	 ================> DF-SCS-MP2 Energies <================== 
	-----------------------------------------------------------
	 SCS Same-Spin Scale       =       0.3333333333333333 [-]
	 SCS Opposite-Spin Scale   =       1.2000000000000000 [-]
	 SCS Same-Spin Energy      =      -0.1316941108970205 [Eh]
	 SCS Opposite-Spin Energy  =      -1.2735972444069130 [Eh]
	 SCS Correlation Energy    =      -1.4052913553039335 [Eh]
	 SCS Total Energy          =    -510.8434252129261495 [Eh]
	-----------------------------------------------------------



Properties will be evaluated at   0.000000,   0.000000,   0.000000 [a0]

Properties computed using the MP2 density matrix

  Nuclear Dipole Moment: [e a0]
     X:     2.8877      Y:     4.9066      Z:    -2.3766

  Electronic Dipole Moment: [e a0]
     X:    -1.3549      Y:    -4.5437      Z:     1.8524

  Dipole Moment: [e a0]
     X:     1.5328      Y:     0.3630      Z:    -0.5242     Total:     1.6601

  Dipole Moment: [D]
     X:     3.8959      Y:     0.9225      Z:    -1.3323     Total:     4.2195

  Quadrupole Moment: [D A]
    XX:   -57.4762     YY:   -54.5810     ZZ:   -57.0546
    XY:     1.8432     XZ:     3.8753     YZ:    -1.3012

  Traceless Quadrupole Moment: [D A]
    XX:    -1.1056     YY:     1.7896     ZZ:    -0.6840
    XY:     1.8432     XZ:     3.8753     YZ:    -1.3012


    Psi4 stopped on: Wednesday, 20 February 2019 01:34PM
    Psi4 wall time for execution: 0:00:10.78

*** Psi4 exiting successfully. Buy a developer a beer!
